LAMMPS (2 Aug 2023 - Update 1)
Reading data file ...
  orthogonal box = (0 0 0) to (102.4 102.4 102.4)
  2 by 4 by 4 MPI processor grid
  reading atoms ...
  32768 atoms
  read_data CPU = 0.057 seconds
WARNING: No fixes with time integration, atoms won't move (../verlet.cpp:60)
Neighbor list info ...
  update: every = 1 steps, delay = 0 steps, check = yes
  max neighbors/atom: 2000, page size: 100000
  master list distance cutoff = 6.3065
  ghost atom cutoff = 6.3065
  binsize = 3.15325, bins = 33 33 33
  1 neighbor lists, perpetual/occasional/extra = 1 0 0
  (1) pair sw, perpetual
      attributes: full, newton on
      pair build: full/bin/atomonly
      stencil: full/bin/3d
      bin: standard
Setting up Verlet run ...
  Unit style    : real
  Current step  : 0
  Time step     : 1
Per MPI rank memory allocation (min/avg/max) = 3.248 | 3.258 | 3.264 Mbytes
   Step          Temp          E_pair         E_mol          TotEng         Press     
         0   273           -330851.86      0             -304187.35     -21987.803    
Loop time of 4.86316e-06 on 32 procs for 0 steps with 32768 atoms

115.0% CPU use with 32 MPI tasks x no OpenMP threads

MPI task timing breakdown:
Section |  min time  |  avg time  |  max time  |%varavg| %total
---------------------------------------------------------------
Pair    | 0          | 0          | 0          |   0.0 |  0.00
Neigh   | 0          | 0          | 0          |   0.0 |  0.00
Comm    | 0          | 0          | 0          |   0.0 |  0.00
Output  | 0          | 0          | 0          |   0.0 |  0.00
Modify  | 0          | 0          | 0          |   0.0 |  0.00
Other   |            | 4.863e-06  |            |       |100.00

Nlocal:           1024 ave        1296 max         784 min
Histogram: 2 0 8 0 12 0 0 8 0 2
Nghost:           1275 ave        1515 max        1003 min
Histogram: 2 0 8 0 0 12 0 8 0 2
Neighs:              0 ave           0 max           0 min
Histogram: 32 0 0 0 0 0 0 0 0 0
FullNghs:        26624 ave       33696 max       20384 min
Histogram: 2 0 8 0 12 0 0 8 0 2

Total # of neighbors = 851968
Ave neighs/atom = 26
Neighbor list builds = 0
Dangerous builds = 0
Setting up Verlet run ...
  Unit style    : real
  Current step  : 0
  Time step     : 10
Per MPI rank memory allocation (min/avg/max) = 3.304 | 3.348 | 3.673 Mbytes
   Step       Elapsed        Temp         Density         Press          Volume         PotEng         KinEng         TotEng        Enthalpy   
         0           0   273            0.91317479    -21987.803      1073741.8     -330851.86      26664.511     -304187.35     -648503.66    
      1000        1000   275.66494      1.0004338     -163.12465      980088.84     -333567.37      26924.802     -306642.57     -308974.2     
      2000        2000   274.44173      1.0015774     -46.057223      978969.69     -334164.9       26805.329     -307359.57     -308017.14    
      3000        3000   270.97905      1.0017491     -102.69616      978801.97     -334045.65      26467.121     -307578.53     -309044.5     
      4000        4000   276.0122       1.001343      -135.50187      979198.89     -334113.32      26958.719     -307154.6      -309089.65    
      5000        5000   271.00965      1.0006719     -100.47512      979855.62     -333962.49      26470.109     -307492.38     -308928.19    
      6000        6000   273.59961      1.0024383     -86.850015      978129.03     -334098.94      26723.077     -307375.86     -308614.78    
      7000        7000   274.9338       1.0029458      19.296963      977634        -333699.56      26853.39      -306846.17     -306571.04    
      8000        8000   272.07955      1.0007163     -1.5573846      979812.13     -333862.21      26574.609     -307287.6      -307309.86    
      9000        9000   271.73815      1.0024639      59.596074      978103.96     -334002.13      26541.264     -307460.87     -306610.75    
     10000       10000   273.63028      1.0021358     -0.56678524     978424.27     -333822.15      26726.072     -307096.08     -307104.17    
     11000       11000   271.92626      1.0026595      11.969805      977913.24     -334048         26559.637     -307488.37     -307317.66    
     12000       12000   273.17231      1.0016078     -5.0113104      978940.04     -334061.67      26681.342     -307380.32     -307451.87    
     13000       13000   276.2307       1.0016424     -55.855892      978906.2      -334185.45      26980.061     -307205.39     -308002.81    
     14000       14000   272.90346      1.0018202     -93.05059       978732.51     -334039.29      26655.082     -307384.21     -308712.39    
     15000       15000   274.0632       1.0026205     -20.702497      977951.22     -333953.51      26768.357     -307185.16     -307480.42    
     16000       16000   272.97512      1.0017755     -89.11117       978776.17     -334009.82      26662.081     -307347.74     -308619.75    
     17000       17000   273.38892      1.000525       44.210048      979999.44     -333813.34      26702.498     -307110.84     -306478.97    
     18000       18000   274.24921      1.0015738     -82.066201      978973.22     -333994.65      26786.524     -307208.13     -308379.81    
     19000       19000   272.67934      1.0015027      17.832292      979042.77     -333703.2       26633.192     -307070        -306815.39    
     20000       20000   272.13574      1.0023928      18.102059      978173.39     -334008.7       26580.097     -307428.61     -307170.37    
     21000       21000   271.72158      1.0030994      49.0033        977484.37     -334050.1       26539.645     -307510.45     -306811.88    
     22000       22000   273.03023      1.001816      -7.2535218      978736.56     -334289.83      26667.464     -307622.36     -307725.9     
     23000       23000   275.27679      1.001782      -84.572622      978769.79     -333678.02      26886.89      -306791.13     -307998.35    
     24000       24000   271.90084      1.0020587     -75.693265      978499.55     -334013.93      26557.154     -307456.78     -308536.95    
     25000       25000   273.16422      1.0034883      253.22459      977105.48     -333871.72      26680.551     -307191.17     -303582.7     
     26000       26000   272.2664       1.0042482      114.59186      976366.15     -334086.36      26592.859     -307493.5      -305861.8     
     27000       27000   272.5566       1.0016614     -24.894827      978887.67     -334069.53      26621.204     -307448.33     -307803.73    
     28000       28000   273.03297      1.0004784     -23.822942      980045.14     -334086.17      26667.731     -307418.44     -307758.94    
     29000       29000   273.38678      1.0016077      68.922665      978940.13     -333903.14      26702.289     -307200.85     -306216.85    
     30000       30000   271.50615      1.0014204      89.764539      979123.18     -333994.6       26518.604     -307475.99     -306194.2     
     31000       31000   272.92508      1.0029531      39.478053      977626.97     -333770.88      26657.193     -307113.69     -306550.83    
     32000       32000   272.80867      1.0024731     -51.359572      978095.02     -333616.77      26645.824     -306970.95     -307703.57    
     33000       33000   273.4206       1.0026831     -33.696806      977890.18     -334109.07      26705.593     -307403.47     -307884.04    
     34000       34000   274.09968      1.0028612      70.318442      977716.53     -333933.4       26771.919     -307161.48     -306158.81    
     35000       35000   272.16215      1.0018235     -36.754448      978729.25     -334148.87      26582.677     -307566.19     -308090.82    
     36000       36000   273.02413      1.0036393      214.85287      976958.55     -334011.99      26666.868     -307345.12     -304283.91    
     37000       37000   273.17734      1.0010187     -128.37146      979516.12     -333852.72      26681.833     -307170.88     -309004.7     
     38000       38000   274.11021      1.0012186     -133.93958      979320.53     -334048.03      26772.948     -307275.09     -309188.06    
     39000       39000   272.20742      1.0023893      60.928441      978176.81     -334115.91      26587.098     -307528.82     -306659.63    
     40000       40000   272.76236      1.0025494     -15.821119      978020.58     -334035.23      26641.301     -307393.93     -307619.6     
     41000       41000   272.72697      1.0010946      72.868011      979441.86     -333873.37      26637.844     -307235.52     -306194.67    
     42000       42000   272.70136      1.0023017      16.55855       978262.33     -334003.16      26635.343     -307367.81     -307131.57    
     43000       43000   272.11712      1.0028381      116.83631      977739.02     -333826.39      26578.279     -307248.11     -305582.1     
     44000       44000   274.34052      1.0023354      82.151243      978229.38     -334140.46      26795.443     -307345.01     -306173       
     45000       45000   272.74873      1.0023767     -48.842828      978189.08     -334070.96      26639.969     -307430.99     -308127.78    
     46000       46000   271.35073      1.0024234      18.763701      978143.54     -333954.59      26503.424     -307451.16     -307183.49    
     47000       47000   275.33797      1.0032749     -64.067369      977313.31     -333808.89      26892.866     -306916.03     -307829.19    
     48000       48000   273.93504      1.0024518      56.077082      978115.83     -334126.07      26755.839     -307370.23     -306570.3     
     49000       49000   271.16562      1.0019557     -25.485113      978600.09     -334249.66      26485.344     -307764.32     -308128.04    
     50000       50000   273.70897      1.0032845      1.4063029      977304        -333778.25      26733.758     -307044.49     -307024.45    
     51000       51000   275.18808      1.0022621      29.818429      978300.95     -333801.16      26878.226     -306922.94     -306497.5     
     52000       52000   272.16576      1.0005715     -68.994096      979953.89     -334049.41      26583.029     -307466.39     -308452.42    
     53000       53000   274.20804      1.0014798     -45.453995      979065.18     -333900.18      26782.503     -307117.68     -307766.7     
     54000       54000   271.55266      1.0026331      18.642991      977938.92     -333773.57      26523.146     -307250.43     -306984.54    
     55000       55000   271.14436      1.0025634     -111.19647      978006.98     -334002.64      26483.266     -307519.38     -309105.4     
     56000       56000   271.02219      1.002131      -14.231509      978428.95     -333990.22      26471.335     -307518.88     -307721.96    
     57000       57000   273.64181      1.0033109      166.98024      977278.3      -333730.55      26727.198     -307003.35     -304623.45    
     58000       58000   272.71335      1.0021494      57.928318      978411        -333766.41      26636.514     -307129.9      -306303.31    
     59000       59000   272.21493      1.0027497      9.1693353      977825.2      -334123.75      26587.832     -307535.92     -307405.16    
     60000       60000   273.54159      1.0024789     -31.684218      978089.38     -333952.8       26717.41      -307235.39     -307687.34    
     61000       61000   271.77828      1.0012551      16.706351      979284.9      -333888.06      26545.183     -307342.88     -307104.28    
     62000       62000   271.05229      1.0019984      26.651667      978558.4      -334017.64      26474.274     -307543.37     -307163.01    
     63000       63000   272.41751      1.001192       2.4658658      979346.6      -334029.02      26607.619     -307421.4      -307386.18    
     64000       64000   272.78541      1.0034141      120.34096      977177.73     -333752.96      26643.552     -307109.41     -305394.41    
     65000       65000   273.61606      1.0016134     -18.013745      978934.53     -334295.46      26724.683     -307570.77     -307827.95    
     66000       66000   272.97942      1.0018059      63.323739      978746.39     -333857.84      26662.501     -307195.34     -306291.46    
     67000       67000   274.50444      1.0012155     -185.90226      979323.6      -334133.05      26811.454     -307321.6      -309976.73    
     68000       68000   272.72553      1.0033094      59.533194      977279.78     -334088.03      26637.704     -307450.33     -306601.82    
     69000       69000   273.42719      1.0011031     -132.19122      979433.55     -333919.86      26706.236     -307213.62     -309101.84    
     70000       70000   270.35884      1.0008362     -94.611511      979694.78     -333812.98      26406.543     -307406.44     -308758.24    
     71000       71000   273.31761      1.0037411     -15.851508      976859.4      -334082.72      26695.533     -307387.19     -307613.02    
     72000       72000   272.15759      1.0021547     -11.294852      978405.84     -334054.65      26582.232     -307472.42     -307633.59    
     73000       73000   271.66028      1.0024275     -59.915906      978139.53     -333968.94      26533.658     -307435.29     -308290       
     74000       74000   274.20969      1.0023227      0.83717055     978241.84     -333678.07      26782.664     -306895.41     -306883.47    
     75000       75000   272.54884      1.0023883     -49.775801      978177.74     -334164.67      26620.446     -307544.22     -308254.31    
     76000       76000   273.53863      1.0011713     -105.28768      979366.82     -334050.68      26717.121     -307333.56     -308837.39    
     77000       77000   275.69301      1.001385       20.482211      979157.81     -334097.03      26927.544     -307169.48     -306877       
     78000       78000   273.02689      1.0009683     -102.79373      979565.48     -333910.55      26667.138     -307243.41     -308711.92    
     79000       79000   273.25108      1.002635       42.911322      977937.06     -334203.16      26689.035     -307514.13     -306902.12    
     80000       80000   273.59612      1.0011937     -26.734498      979344.94     -333827.11      26722.736     -307104.37     -307486.22    
     81000       81000   273.31463      1.0010653     -28.05119       979470.58     -333982.19      26695.242     -307286.95     -307687.65    
     82000       82000   271.43023      1.0007288     -59.045623      979799.85     -333714.58      26511.189     -307203.39     -308047.11    
     83000       83000   273.58835      1.0006595     -47.118311      979867.69     -333728.46      26721.977     -307006.48     -307679.82    
     84000       84000   272.9652       1.0033531      31.404903      977237.17     -334075.12      26661.112     -307414.01     -306966.43    
     85000       85000   273.5059       1.0036725     -28.958821      976926.24     -334063.63      26713.924     -307349.71     -307762.3     
     86000       86000   273.79508      1.0009553     -101.08724      979578.21     -333711.86      26742.169     -306969.69     -308413.84    
     87000       87000   273.97009      1.004197       207.1367       976415.9      -334098.46      26759.262     -307339.2      -304389.57    
     88000       88000   273.16932      1.0030678      54.979167      977515.15     -334127.25      26681.049     -307446.2      -306662.42    
     89000       89000   271.74519      1.0021613     -19.888737      978399.34     -334268.82      26541.951     -307726.87     -308010.66    
     90000       90000   270.88314      1.0011876     -77.48596       979350.83     -334241.89      26457.753     -307784.14     -308890.86    
     91000       91000   273.4462       1.0017699     -104.04253      978781.6      -333762.68      26708.093     -307054.59     -308539.74    
     92000       92000   271.0745       1.0019467      53.035528      978608.87     -334143.31      26476.444     -307666.87     -306909.95    
     93000       93000   271.37037      1.0015662     -118.19501      978980.68     -333748.19      26505.342     -307242.85     -308930.37    
     94000       94000   273.26138      1.0020452     -110.36963      978512.67     -333612.63      26690.041     -306922.59     -308497.63    
     95000       95000   272.45982      1.0028149     -13.378258      977761.63     -334322.56      26611.751     -307710.81     -307901.58    
     96000       96000   273.26145      1.0024174     -6.472618       978149.34     -334020.39      26690.048     -307330.35     -307422.68    
     97000       97000   273.75156      1.0033813      2.4836195      977209.74     -333838.68      26737.918     -307100.76     -307065.37    
     98000       98000   272.59154      1.0017677     -53.802934      978783.75     -333776.15      26624.616     -307151.53     -307919.54    
     99000       99000   272.80434      1.0023681      5.9761514      978197.48     -333998.72      26645.401     -307353.32     -307268.06    
    100000      100000   271.73369      1.0031718      67.739424      977413.75     -334146.05      26540.829     -307605.22     -306639.63    
Loop time of 508.119 on 32 procs for 100000 steps with 32768 atoms

Performance: 170.039 ns/day, 0.141 hours/ns, 196.804 timesteps/s, 6.449 Matom-step/s
100.0% CPU use with 32 MPI tasks x no OpenMP threads

MPI task timing breakdown:
Section |  min time  |  avg time  |  max time  |%varavg| %total
---------------------------------------------------------------
Pair    | 435.69     | 436.77     | 437.64     |   2.2 | 85.96
Neigh   | 17.371     | 17.466     | 18.636     |   5.3 |  3.44
Comm    | 45.426     | 46.681     | 48.062     |   9.8 |  9.19
Output  | 0.027298   | 0.036069   | 0.0445     |   2.7 |  0.01
Modify  | 5.5335     | 6.1323     | 7.5233     |  19.3 |  1.21
Other   |            | 1.036      |            |       |  0.20

Nlocal:           1024 ave        1047 max        1006 min
Histogram: 3 0 7 3 10 2 4 1 1 1
Nghost:        3033.25 ave        3055 max        3011 min
Histogram: 3 0 6 3 3 6 2 4 2 3
Neighs:              0 ave           0 max           0 min
Histogram: 32 0 0 0 0 0 0 0 0 0
FullNghs:        97329 ave      100154 max       94836 min
Histogram: 3 0 4 5 6 6 4 2 1 1

Total # of neighbors = 3114528
Ave neighs/atom = 95.047852
Neighbor list builds = 5530
Dangerous builds = 0
System init for write_restart ...
Reading restart file ...
  restart file = 2 Aug 2023, LAMMPS = 2 Aug 2023
  restoring atom style atomic from restart
  orthogonal box = (1.5793077 1.5793077 1.5793077) to (100.82069 100.82069 100.82069)
  4 by 2 by 4 MPI processor grid
  pair style sw stores no restart info
  32768 atoms
  read_restart CPU = 0.012 seconds
Resetting global fix info from restart file:
  fix style: npt, fix ID: 1
All restart file global fix info was re-assigned
Neighbor list info ...
  update: every = 1 steps, delay = 0 steps, check = yes
  max neighbors/atom: 2000, page size: 100000
  master list distance cutoff = 8.8065
  ghost atom cutoff = 8.8065
  binsize = 4.40325, bins = 23 23 23
  1 neighbor lists, perpetual/occasional/extra = 1 0 0
  (1) pair sw, perpetual
      attributes: full, newton on
      pair build: full/bin/atomonly
      stencil: full/bin/3d
      bin: standard
Setting up Verlet run ...
  Unit style    : real
  Current step  : 100000
  Time step     : 10
Per MPI rank memory allocation (min/avg/max) = 3.339 | 3.424 | 3.723 Mbytes
   Step       Elapsed        Temp         Density         Press          Volume         PotEng         KinEng         TotEng        Enthalpy   
    100000           0   271.73369      1.0031718      67.739424      977413.75     -334146.05      26540.829     -307605.22     -306639.63    
    101000        1000   274.64097      1.0009772      31.834944      979556.77     -333639.9       26824.789     -306815.11     -306360.32    
    102000        2000   274.38745      1.0030629      9.324454       977519.93     -333811.81      26800.026     -307011.79     -306878.86    
    103000        3000   273.0963       1.0022678      70.404022      978295.39     -334187.12      26673.917     -307513.2      -306508.72    
    104000        4000   273.37482      1.0013012     -132.33239      979239.73     -333861.56      26701.121     -307160.44     -309050.31    
    105000        5000   274.30616      1.0024446      37.608583      978122.85     -334134.76      26792.087     -307342.67     -306806.19    
    106000        6000   275.03513      1.0027416      24.751296      977833.12     -334145.59      26863.287     -307282.3      -306929.33    
    107000        7000   270.19533      1.0001642     -185.45077      980352.95     -333897.67      26390.573     -307507.1      -310158.57    
    108000        8000   275.07959      1.0010727     -27.567773      979463.29     -333855.15      26867.63      -306987.52     -307381.31    
    109000        9000   271.88329      1.000424      -31.382759      980098.41     -333929.72      26555.44      -307374.28     -307822.86    
    110000       10000   270.40224      1.0020522     -79.445802      978505.84     -333918.88      26410.783     -307508.09     -308641.83    
    111000       11000   271.84888      1.000579      -85.377724      979946.53     -333887.03      26552.079     -307334.95     -308555.13    
    112000       12000   272.03984      1.0016889      24.900719      978860.73     -334038.48      26570.731     -307467.75     -307112.27    
    113000       13000   272.84738      1.0029471      198.24883      977632.74     -334326.4       26649.605     -307676.8      -304850.21    
    114000       14000   273.18172      1.0011823      1.5179258      979356.05     -333924.2       26682.26      -307241.94     -307220.26    
    115000       15000   274.11016      1.0026725      68.474348      977900.49     -333886.09      26772.944     -307113.14     -306136.58    
    116000       16000   275.33614      1.0014425     -70.95061       979101.6      -334075.37      26892.687     -307182.69     -308195.8     
    117000       17000   271.2968       1.0043459      131.43662      976271.17     -333761.19      26498.156     -307263.04     -305391.65    
    118000       18000   273.63106      1.0024973      143.85843      978071.46     -333954.5       26726.149     -307228.35     -305176.33    
    119000       19000   272.53989      1.0009182     -62.500853      979614.44     -333960.3       26619.572     -307340.73     -308233.66    
    120000       20000   273.88616      1.0024828      80.209684      978085.54     -333695.43      26751.064     -306944.36     -305800.22    
    121000       21000   271.49001      1.003595       24.181628      977001.65     -334029.57      26517.027     -307512.54     -307167.99    
    122000       22000   271.4331       1.0031928      18.730384      977393.38     -334109         26511.469     -307597.54     -307330.55    
    123000       23000   272.42792      1.0020457     -100.51197      978512.18     -334052.03      26608.635     -307443.39     -308877.76    
    124000       24000   274.47488      1.0023027      96.50902       978261.28     -334005.32      26808.567     -307196.75     -305819.86    
    125000       25000   275.8085       1.0017083      52.357937      978841.83     -334072.81      26938.824     -307133.99     -306386.56    
    126000       26000   272.83745      1.0037771      150.69122      976824.36     -333868.8       26648.635     -307220.16     -305073.42    
    127000       27000   274.54032      1.0011958     -48.334366      979342.83     -334039.51      26814.958     -307224.55     -307914.9     
    128000       28000   272.98884      1.0029726      77.313614      977607.9      -333775.65      26663.421     -307112.23     -306009.94    
    129000       29000   273.46935      1.0006053     -91.251415      979920.81     -334079.42      26710.354     -307369.07     -308673.16    
    130000       30000   273.32167      1.0018953      91.654725      978659.11     -334073.69      26695.93      -307377.76     -306069.6     
    131000       31000   272.16252      1.0025428     -168.72212      978027.07     -333878.52      26582.713     -307295.8      -309702.37    
    132000       32000   271.63627      1.0030387      39.287963      977543.47     -334181.95      26531.313     -307650.64     -307090.53    
    133000       33000   274.26889      1.0040203      22.072443      976587.78     -334087.57      26788.447     -307299.12     -306984.76    
    134000       34000   271.50497      1.0027469      92.279271      977828.01     -334177.25      26518.488     -307658.76     -306342.8     
    135000       35000   271.87153      1.0020512      58.534537      978506.88     -333967.68      26554.291     -307413.39     -306578.07    
    136000       36000   273.15391      1.0029518     -61.964095      977628.23     -334140.92      26679.545     -307461.37     -308344.84    
    137000       37000   272.16199      1.0028746      93.430668      977703.46     -333875.63      26582.661     -307292.97     -305960.76    
    138000       38000   272.72116      1.0018228     -71.697539      978729.92     -334079.98      26637.277     -307442.71     -308466.1     
    139000       39000   273.94027      1.0026213      1.2947439      977950.49     -334160.1       26756.35      -307403.75     -307385.29    
    140000       40000   275.24028      1.0032934      142.40784      977295.36     -334251.91      26883.324     -307368.59     -305338.87    
    141000       41000   274.62439      1.0020198      84.264319      978537.55     -333828.25      26823.169     -307005.09     -305802.55    
    142000       42000   273.39505      1.0023738     -144.35713      978191.96     -334009.47      26703.097     -307306.38     -309365.76    
    143000       43000   273.40654      1.0020741     -70.503831      978484.51     -334018.88      26704.219     -307314.66     -308320.77    
    144000       44000   273.47346      1.0028728      63.733359      977705.2      -334066.37      26710.755     -307355.61     -306446.85    
    145000       45000   272.48783      1.0021366     -162.98704      978423.46     -333968.04      26614.487     -307353.55     -309679.26    
    146000       46000   271.29223      1.0015354     -54.22871       979010.81     -334073.01      26497.71      -307575.29     -308349.57    
    147000       47000   273.27327      1.0017872     -80.56561       978764.73     -334081.03      26691.202     -307389.83     -308539.84    
    148000       48000   271.27503      1.0011404     -118.93448      979397.01     -334236.24      26496.03      -307740.21     -309439.01    
    149000       49000   272.04972      1.0027281      55.868581      977846.28     -334111         26571.696     -307539.31     -306742.57    
    150000       50000   272.56992      1.002931       102.35197      977648.43     -334334.84      26622.505     -307712.33     -306253       
    151000       51000   273.80654      1.0011099     -129.70785      979426.92     -334296.71      26743.288     -307553.42     -309406.16    
    152000       52000   272.8847       1.0009765     -88.47085       979557.46     -334136.28      26653.249     -307483.03     -308746.91    
    153000       53000   271.47921      1.0021505      14.902783      978409.89     -333900.37      26515.973     -307384.4      -307171.75    
    154000       54000   269.8395       1.0015372      54.555107      979009.03     -334233.72      26355.818     -307877.9      -307098.97    
    155000       55000   271.6018       1.0018274      28.594321      978725.46     -333987.18      26527.946     -307459.23     -307051.09    
    156000       56000   273.4962       1.0012095     -91.039204      979329.41     -333944.7       26712.976     -307231.72     -308531.99    
    157000       57000   271.41226      1.0028589      73.963486      977718.76     -333979.13      26509.433     -307469.69     -306415.05    
    158000       58000   273.53733      1.003354       177.97314      977236.33     -333979.49      26716.993     -307262.5      -304726.02    
    159000       59000   272.63351      1.0021627     -21.310348      978397.95     -334160.21      26628.715     -307531.5      -307835.57    
    160000       60000   272.91977      1.0020451     -55.95703       978512.81     -334218.38      26656.675     -307561.71     -308360.25    
    161000       61000   272.22538      1.0023468      11.313492      978218.32     -334103.06      26588.852     -307514.2      -307352.8     
    162000       62000   270.90939      1.0013417      16.494088      979200.21     -334244.01      26460.317     -307783.7      -307548.15    
    163000       63000   271.8116       1.0032243     -64.508298      977362.66     -334100.35      26548.438     -307551.91     -308471.4     
    164000       64000   272.34737      1.0025829     -14.104478      977987.96     -333943.65      26600.768     -307342.89     -307544.06    
    165000       65000   271.20264      1.0007064     -29.068639      979821.8      -333917.19      26488.959     -307428.23     -307843.61    
    166000       66000   271.7906       1.0026085     -41.262484      977962.91     -333992.43      26546.387     -307446.04     -308034.55    
    167000       67000   268.80892      1.0034735      89.957239      977119.98     -334167.52      26255.16      -307912.36     -306630.45    
    168000       68000   272.25506      1.0008283     -66.331886      979702.5      -333856.84      26591.751     -307265.09     -308212.84    
    169000       69000   273.27919      1.0027281      145.29277      977846.33     -334162.65      26691.781     -307470.87     -305398.86    
    170000       70000   273.41634      1.0027243      127.58627      977850.02     -334001.74      26705.176     -307296.56     -305477.06    
    171000       71000   274.23874      1.0037604      48.17673       976840.6      -334217.95      26785.502     -307432.45     -306746.12    
    172000       72000   271.53152      1.0039252     -24.912808      976680.32     -334009.27      26521.082     -307488.19     -307843.04    
    173000       73000   273.31689      1.0026375      5.7386721      977934.61     -334157.34      26695.462     -307461.88     -307380.04    
    174000       74000   270.00689      1.0021869      10.566605      978374.38     -333918.29      26372.167     -307546.13     -307395.36    
    175000       75000   273.37311      1.001457      -0.94845754     979087.45     -334009.74      26700.954     -307308.79     -307322.33    
    176000       76000   270.0042       1.0015059     -61.125866      979039.63     -334016.96      26371.905     -307645.05     -308517.82    
    177000       77000   271.95564      1.0023657     -94.866545      978199.79     -333914.59      26562.506     -307352.08     -308705.45    
    178000       78000   273.60923      1.0031804      18.397933      977405.43     -334377.71      26724.016     -307653.69     -307391.44    
    179000       79000   269.83268      1.0036869      24.455608      976912.19     -334328.81      26355.153     -307973.66     -307625.23    
    180000       80000   273.77538      1.0025141     -79.507003      978055.05     -333663.92      26740.244     -306923.68     -308057.76    
    181000       81000   271.81616      1.0012084      41.92588       979330.57     -334005.56      26548.883     -307456.67     -306857.86    
    182000       82000   270.13861      1.0037716      170.13345      976829.75     -334084.89      26385.034     -307699.85     -305276.12    
    183000       83000   271.63918      1.0021312      15.502124      978428.78     -334065.33      26531.597     -307533.73     -307312.53    
    184000       84000   272.72378      1.0006964     -125.41631      979831.59     -334046.57      26637.533     -307409.04     -309201.22    
    185000       85000   272.84075      1.0032399     -43.919918      977347.41     -334100.67      26648.957     -307451.71     -308077.73    
    186000       86000   271.31568      1.0009195     -76.435035      979613.25     -334277.23      26500.001     -307777.23     -308869.23    
    187000       87000   272.71608      1.000969      -88.552032      979564.71     -333854.85      26636.781     -307218.07     -308483.12    
    188000       88000   271.60325      1.0012792     -164.6982       979261.28     -334165.84      26528.088     -307637.75     -309989.9     
    189000       89000   273.16061      1.0011548     -152.2623       979382.92     -333862.7       26680.199     -307182.5      -309357.31    
    190000       90000   270.58336      1.0009493     -69.337415      979584        -334019.71      26428.473     -307591.23     -308581.8     
    191000       91000   271.60747      1.003033       91.391968      977549.09     -334033.75      26528.5       -307505.25     -306202.31    
    192000       92000   272.62846      1.0023721      90.61763       978193.55     -333989.26      26628.222     -307361.04     -306068.3     
    193000       93000   272.12795      1.0012951     -94.956009      979245.7      -334357.72      26579.337     -307778.39     -309134.48    
    194000       94000   271.70424      1.0020763      27.027251      978482.31     -333901.32      26537.952     -307363.37     -306977.69    
    195000       95000   269.6356       1.0023209      25.17418       978243.57     -333914.49      26335.903     -307578.59     -307219.44    
    196000       96000   274.12288      1.0016009      5.9505568      978946.77     -334164         26774.185     -307389.81     -307304.86    
    197000       97000   270.90983      1.0022183     -114.76338      978343.74     -334118.67      26460.36      -307658.31     -309295.77    
    198000       98000   272.28165      1.0023903      162.66296      978175.84     -334127.56      26594.348     -307533.21     -305212.71    
    199000       99000   271.65645      1.0035484      40.407247      977046.98     -334195.28      26533.284     -307661.99     -307086.22    
    200000      100000   270.91105      1.001754       26.550997      978797.19     -333964.55      26460.479     -307504.07     -307125.06    
    201000      101000   274.99783      1.0024296      22.369144      978137.44     -334020.67      26859.644     -307161.02     -306841.93    
    202000      102000   274.08491      1.0020919      29.353478      978467.1      -333981.48      26770.477     -307211        -306792.13    
    203000      103000   272.00366      1.0011506     -98.639571      979387.12     -334181.98      26567.196     -307614.78     -309023.68    
    204000      104000   272.7591       1.0025706      34.198146      977999.92     -334175.18      26640.982     -307534.19     -307046.42    
    205000      105000   271.94124      1.0017378      49.8782        978812.96     -334076.18      26561.1       -307515.08     -306803.07    
    206000      106000   273.61328      1.0016426      8.4455915      978905.99     -334114.27      26724.412     -307389.86     -307269.29    
    207000      107000   267.95843      1.0031983      119.62102      977387.96     -334096.08      26172.091     -307923.99     -306218.88    
    208000      108000   271.72142      1.0037947      60.868015      976807.3      -334053.39      26539.63      -307513.76     -306646.65    
    209000      109000   273.91034      1.0020099     -45.564636      978547.18     -334020.1       26753.426     -307266.67     -307916.93    
    210000      110000   273.59376      1.0031898      41.643425      977396.26     -334248.68      26722.505     -307526.18     -306932.58    
    211000      111000   274.04659      1.0015609     -103.84171      978985.88     -334214.14      26766.734     -307447.4      -308930       
    212000      112000   272.87012      1.0008373     -72.85467       979693.7      -334086.62      26651.826     -307434.8      -308475.73    
    213000      113000   272.5829       1.0024814     -25.949488      978086.96     -334309.62      26623.772     -307685.85     -308056       
    214000      114000   274.01327      1.0040699     -29.281162      976539.58     -334445.88      26763.48      -307682.4      -308099.42    
    215000      115000   270.12119      1.0010966     -55.300567      979439.88     -334194.39      26383.332     -307811.06     -308600.98    
    216000      116000   271.84376      1.002395      -62.070068      978171.2      -333909.83      26551.579     -307358.25     -308243.72    
    217000      117000   271.91058      1.0027733      14.056914      977802.2      -334299.67      26558.105     -307741.56     -307541.11    
    218000      118000   270.54671      1.0021556     -15.118328      978404.93     -334070.08      26424.893     -307645.19     -307860.91    
    219000      119000   268.6767       1.0011912     -29.316242      979347.32     -334103.77      26242.245     -307861.52     -308280.24    
    220000      120000   274.39685      1.0007048     -166.88608      979823.36     -334331.61      26800.944     -307530.67     -309915.42    
    221000      121000   271.97866      1.0027232      72.98323       977851.04     -334043.89      26564.755     -307479.13     -306438.32    
    222000      122000   274.90433      1.0013392      65.329917      979202.63     -334295.37      26850.512     -307444.86     -306511.91    
    223000      123000   270.32243      1.0012672     -157.26674      979273.05     -334213.36      26402.987     -307810.37     -310056.41    
    224000      124000   271.45069      1.0022109     -37.795887      978350.94     -334123.06      26513.186     -307609.87     -308149.15    
    225000      125000   272.33017      1.0018045     -45.830705      978747.81     -334421.6       26599.088     -307822.51     -308476.7     
    226000      126000   271.55848      1.003265       137.22036      977323.03     -334148.92      26523.715     -307625.21     -305669.37    
    227000      127000   271.26623      1.0009158     -104.8865       979616.85     -334124.31      26495.17      -307629.14     -309127.62    
    228000      128000   271.39976      1.0026708     -92.615719      977902.15     -334104.66      26508.212     -307596.45     -308917.3     
    229000      129000   270.32582      1.0016468     -89.811196      978901.87     -334176.35      26403.318     -307773.04     -309055.21    
    230000      130000   271.94784      1.0038972      44.074682      976707.52     -334313.11      26561.744     -307751.37     -307123.56    
    231000      131000   271.32303      1.0014361     -66.216478      979107.89     -334096.76      26500.718     -307596.05     -308541.57    
    232000      132000   269.83943      1.0029222      13.4462        977657.06     -334012.38      26355.811     -307656.56     -307464.85    
    233000      133000   273.52196      1.0013009     -60.181813      979240.11     -334388.74      26715.492     -307673.25     -308532.72    
    234000      134000   272.19287      1.0017336      20.266747      978817.09     -333844.85      26585.677     -307259.17     -306969.87    
    235000      135000   271.1988       1.0028377      10.957027      977739.46     -333938.26      26488.585     -307449.68     -307293.44    
    236000      136000   271.04294      0.9999554     -91.467086      980557.69     -334078.54      26473.361     -307605.18     -308913.2     
    237000      137000   270.16258      1.0008737     -57.224134      979658.05     -334221.95      26387.374     -307834.58     -308652.15    
    238000      138000   270.62741      1.0027001     -25.428399      977873.56     -334035.26      26432.776     -307602.49     -307965.13    
    239000      139000   271.5406       1.0035097     -3.1835029      977084.73     -334261.48      26521.969     -307739.51     -307784.88    
    240000      140000   270.80886      1.0014422     -57.33001       979101.88     -334226.69      26450.498     -307776.19     -308594.82    
    241000      141000   270.47752      1.0031507     -46.533469      977434.37     -334227.25      26418.135     -307809.12     -308472.45    
    242000      142000   269.94846      1.0030219      3.7089553      977559.91     -334151.05      26366.461     -307784.59     -307731.71    
    243000      143000   271.15359      1.0006045     -98.447531      979921.64     -334189.33      26484.168     -307705.16     -309112.09    
    244000      144000   268.85871      1.0004911     -73.032743      980032.65     -334347.19      26260.022     -308087.17     -309131.01    
    245000      145000   272.80416      1.0029939      5.2286464      977587.11     -334408.68      26645.383     -307763.3      -307688.75    
    246000      146000   271.28539      1.0027722      106.59439      977803.31     -334397.95      26497.042     -307900.91     -306380.85    
    247000      147000   272.31519      1.0030184      138.20081      977563.29     -334474.42      26597.625     -307876.79     -305906.5     
    248000      148000   267.91944      1.0027243      62.204269      977850.02     -334122.98      26168.281     -307954.7      -307067.61    
    249000      149000   274.26071      1.0026854     -2.0302098      977887.97     -334200         26787.647     -307412.35     -307441.31    
    250000      150000   269.08558      1.0028729      159.26158      977705.11     -334130.25      26282.181     -307848.07     -305577.19    
    251000      151000   270.01165      1.0014622     -65.773731      979082.32     -334433.1       26372.633     -308060.47     -308999.65    
    252000      152000   271.06329      1.0004648     -36.30954       980058.41     -334022.72      26475.349     -307547.37     -308066.35    
    253000      153000   269.46014      1.0022458      32.296711      978316.85     -334027.78      26318.766     -307709.01     -307248.21    
    254000      154000   273.73264      1.0026981     -2.9300999      977875.54     -334148.29      26736.07      -307412.22     -307454.01    
    255000      155000   270.2023       1.0019863      93.700812      978570.21     -334087.72      26391.254     -307696.46     -306359.22    
    256000      156000   272.06121      1.0012423     -89.948653      979297.37     -334314.36      26572.818     -307741.54     -309026.2     
    257000      157000   272.47552      1.0030064      18.172795      977575        -334111.06      26613.284     -307497.77     -307238.69    
    258000      158000   271.93576      1.0019582     -65.130365      978597.69     -334094.52      26560.565     -307533.96     -308463.49    
    259000      159000   269.95447      1.0035611      60.484163      977034.68     -334143.89      26367.048     -307776.85     -306915       
    260000      160000   271.92752      1.0007952     -130.35738      979734.87     -334414.36      26559.76      -307854.6      -309717.2     
    261000      161000   270.89793      1.0014586      13.828088      979085.84     -334168.43      26459.197     -307709.23     -307511.78    
    262000      162000   272.04869      1.0019848      107.70442      978571.64     -334223.32      26571.594     -307651.73     -306114.63    
    263000      163000   270.7719       1.0027329      36.778386      977841.63     -334270.83      26446.888     -307823.94     -307299.45    
    264000      164000   273.15647      1.0022175      132.22304      978344.48     -334182.59      26679.794     -307502.8      -305616.22    
    265000      165000   271.34763      1.0002591     -89.033492      980259.94     -334185.78      26503.121     -307682.66     -308955.49    
    266000      166000   269.3007       1.003444       42.110221      977148.68     -334327.12      26303.192     -308023.92     -307423.82    
    267000      167000   271.51463      1.0019467     -18.362476      978608.88     -334300         26519.432     -307780.57     -308042.64    
    268000      168000   271.09338      1.0023323     -43.065657      978232.42     -334326.73      26478.287     -307848.45     -308462.84    
    269000      169000   269.82782      1.0021869     -30.167907      978374.34     -334625.07      26354.677     -308270.4      -308700.85    
    270000      170000   270.89637      1.0015255     -11.687909      979020.47     -334401.35      26459.045     -307942.31     -308109.19    
    271000      171000   270.64906      1.0027189      112.67249      977855.25     -334312.4       26434.89      -307877.51     -306270.69    
    272000      172000   271.60081      1.002268       22.400595      978295.18     -334538.24      26527.849     -308010.4      -307690.8     
    273000      173000   270.20143      1.0025294     -44.802839      978040.09     -334275.76      26391.169     -307884.59     -308523.65    
    274000      174000   272.56297      1.0022914     -23.848728      978272.31     -334250.05      26621.826     -307628.23     -307968.48    
    275000      175000   271.16224      1.0029034      47.664037      977675.37     -334290.79      26485.014     -307805.77     -307126.16    
    276000      176000   271.53445      1.0033569      44.016661      977233.45     -334197         26521.368     -307675.64     -307048.31    
    277000      177000   271.97782      1.0034527      84.194587      977140.19     -334249.29      26564.673     -307684.61     -306484.79    
    278000      178000   271.6885       1.0030521      28.997372      977530.43     -334259.41      26536.414     -307723        -307309.61    
    279000      179000   269.84703      1.0016388     -19.611878      978909.77     -334283.69      26356.554     -307927.14     -308207.12    
    280000      180000   270.61531      1.0012422     -2.0821509      979297.43     -334182.53      26431.594     -307750.93     -307780.67    
    281000      181000   269.97796      1.003042       10.843195      977540.29     -334480.06      26369.342     -308110.71     -307956.13    
    282000      182000   272.20367      1.0019864     -137.76949      978570.14     -334411         26586.732     -307824.27     -309790.44    
    283000      183000   272.81576      1.0021022      23.485095      978457.09     -334257.69      26646.516     -307611.17     -307276.05    
    284000      184000   270.62873      1.0018055     -36.201535      978746.79     -334186.16      26432.904     -307753.26     -308270       
    285000      185000   271.93573      1.0012552     -20.472545      979284.76     -334477.62      26560.562     -307917.06     -308209.44    
    286000      186000   272.91825      1.0026479     -72.628843      977924.55     -334130.33      26656.526     -307473.81     -308509.64    
    287000      187000   270.54285      1.0016798      18.728475      978869.64     -334158.62      26424.516     -307734.1      -307466.74    
    288000      188000   271.38342      1.0018125      61.118343      978739.98     -334387.7       26506.616     -307881.08     -307008.69    
    289000      189000   272.49591      1.0044689      129.41277      976151.68     -334312.02      26615.276     -307696.75     -305854.41    
    290000      190000   273.22092      1.0035578      152.52704      977037.88     -334439.48      26686.089     -307753.39     -305580.02    
    291000      191000   268.56948      1.0026528      70.733142      977919.72     -334409.32      26231.773     -308177.54     -307168.75    
    292000      192000   270.73535      1.0028405     -16.03633       977736.67     -334213.44      26443.318     -307770.12     -307998.79    
    293000      193000   270.82392      1.0012542      7.6930093      979285.74     -334418.32      26451.969     -307966.35     -307856.48    
    294000      194000   269.77325      1.0010698     -123.48047      979466.15     -334133.36      26349.348     -307784.01     -309547.87    
    295000      195000   273.87953      1.0033797      29.217323      977211.25     -334379.53      26750.417     -307629.12     -307212.72    
    296000      196000   268.6541       1.0030549     -8.8877421      977527.71     -334452.25      26240.038     -308212.22     -308338.92    
    297000      197000   272.94507      1.0018107     -14.086732      978741.75     -334543.92      26659.147     -307884.78     -308085.85    
    298000      198000   270.7771       1.0037005      55.100254      976898.95     -334544.02      26447.396     -308096.63     -307311.61    
    299000      199000   269.82745      1.0036619     -3.9601354      976936.53     -334485.36      26354.641     -308130.71     -308187.14    
    300000      200000   270.80076      1.0024504      39.119747      978117.17     -334405.36      26449.707     -307955.65     -307397.61    
    301000      201000   269.46514      1.0019399     -15.773329      978615.52     -334192.22      26319.254     -307872.97     -308098.09    
    302000      202000   269.0689       1.0023052     -43.485026      978258.87     -334418.41      26280.552     -308137.86     -308758.25    
    303000      203000   271.38444      1.0035758      18.539811      977020.32     -334138.79      26506.716     -307632.07     -307367.9     
    304000      204000   272.07767      1.0031614      76.730584      977423.98     -334263.89      26574.426     -307689.47     -306595.69    
    305000      205000   270.54592      1.0031579      25.399346      977427.39     -334462         26424.816     -308037.19     -307675.12    
    306000      206000   268.93088      1.0040077      142.07348      976600.06     -334059.63      26267.071     -307792.56     -305769.05    
    307000      207000   271.62979      1.0012855     -91.907944      979255.09     -334288.66      26530.68      -307757.98     -309070.56    
    308000      208000   270.80091      1.0017076      64.655267      978842.53     -334405.85      26449.721     -307956.13     -307033.15    
    309000      209000   268.82946      1.0021378      75.437914      978422.32     -334387.28      26257.165     -308130.11     -307053.67    
    310000      210000   269.36573      1.0003808     -229.28047      980140.71     -334462.85      26309.544     -308153.3      -311430.72    
    311000      211000   269.07577      1.0019735      5.8952606      978582.74     -334169         26281.223     -307887.78     -307803.64    
    312000      212000   270.07186      1.0020041     -91.271545      978552.88     -334266.7       26378.514     -307888.19     -309190.74    
    313000      213000   271.36655      1.0037262      61.143518      976873.93     -334327.58      26504.969     -307822.61     -306951.52    
    314000      214000   268.48597      1.0014334     -77.986235      979110.5      -334216.61      26223.616     -307992.99     -309106.58    
    315000      215000   272.18918      1.0025287     -63.946186      978040.81     -334167.99      26585.317     -307582.67     -308494.78    
    316000      216000   269.53805      1.0020298     -6.7501815      978527.74     -334373.25      26326.375     -308046.88     -308143.21    
    317000      217000   269.56296      1.0016223      43.30652       978925.84     -334389.6       26328.808     -308060.8      -307442.53    
    318000      218000   270.71137      1.0022653      10.01523       978297.8      -334414.32      26440.976     -307973.34     -307830.45    
    319000      219000   271.54419      1.0034816      74.524588      977112        -334429.28      26522.319     -307906.96     -306844.97    
    320000      220000   272.56844      1.0024306     -28.114113      978136.53     -334149.24      26622.36      -307526.88     -307927.94    
    321000      221000   270.8024       1.0015423     -12.767392      979004.04     -334321.93      26449.867     -307872.06     -308054.35    
    322000      222000   270.1331       1.0022668     -53.942614      978296.37     -334154.98      26384.495     -307770.49     -308540.11    
    323000      223000   271.37427      1.0019805     -96.988533      978575.84     -334400.29      26505.723     -307894.57     -309278.74    
    324000      224000   270.65007      1.0037969     -34.014939      976805.14     -334473.43      26434.988     -308038.44     -308523.01    
    325000      225000   272.73635      1.0028753      45.473146      977702.81     -334599.31      26638.76      -307960.55     -307312.15    
    326000      226000   271.47342      1.0031642      109.01005      977421.16     -334376.85      26515.407     -307861.44     -306307.53    
    327000      227000   270.51337      1.0027571     -63.773822      977818.03     -334360.92      26421.637     -307939.28     -308848.73    
    328000      228000   270.45009      1.0030154     -35.094137      977566.2      -334132.97      26415.456     -307717.51     -308217.84    
    329000      229000   270.18563      1.0014553     -64.008243      979089.11     -334619.83      26389.626     -308230.21     -309144.18    
    330000      230000   269.12362      1.0042714      95.227603      976343.62     -334200.57      26285.897     -307914.67     -306558.73    
    331000      231000   271.5681       1.003312       107.55175      977277.19     -334112.03      26524.654     -307587.38     -306054.49    
    332000      232000   270.75415      1.0040959      147.78831      976514.27     -334172.11      26445.155     -307726.95     -305622.23    
    333000      233000   269.4983       1.002919      -18.425493      977660.19     -334315.8       26322.493     -307993.31     -308256.03    
    334000      234000   271.90456      1.0026375     -0.88130876     977934.66     -334307.95      26557.517     -307750.44     -307763.01    
    335000      235000   271.50767      1.0023892     -8.7524887      978176.91     -334445.06      26518.752     -307926.31     -308051.17    
    336000      236000   271.28471      1.0030946     -23.356088      977489        -334290.71      26496.975     -307793.74     -308126.69    
    337000      237000   271.75311      1.0028475      69.24477       977729.92     -334236         26542.725     -307693.28     -306705.91    
    338000      238000   272.72764      1.0026741     -25.32334       977898.92     -334363.51      26637.909     -307725.6      -308086.75    
    339000      239000   268.87408      1.0022299      19.673726      978332.42     -334356.45      26261.524     -308094.93     -307814.22    
    340000      240000   271.26017      1.0016687      18.321206      978880.53     -334261.53      26494.579     -307766.95     -307505.4     
    341000      241000   269.23361      1.0031335      90.637087      977451.14     -334242.68      26296.64      -307946.05     -306654       
    342000      242000   270.5924       1.0031977      90.1827        977388.61     -334333.85      26429.356     -307904.5      -306619.01    
    343000      243000   270.22079      1.0024575      32.549771      978110.21     -334306.44      26393.06      -307913.38     -307449.07    
    344000      244000   267.13104      1.0018103     -85.942749      978742.09     -333980.88      26091.278     -307889.6      -309116.35    
    345000      245000   272.53516      1.003266       19.080413      977322.01     -334370.53      26619.11      -307751.42     -307479.46    
    346000      246000   269.35486      1.0027019     -45.311209      977871.84     -334236.09      26308.483     -307927.61     -308573.8     
    347000      247000   268.81396      1.0017483     -15.833042      978802.76     -334123.57      26255.652     -307867.92     -308093.93    
    348000      248000   271.01826      1.0011807     -58.477674      979357.62     -334492.44      26470.951     -308021.49     -308856.72    
    349000      249000   269.89667      1.0017595     -143.48767      978791.78     -334429.35      26361.402     -308067.95     -310116.19    
    350000      250000   271.14166      1.0011314      11.455382      979405.81     -334366.09      26483.003     -307883.09     -307719.46    
    351000      251000   270.22044      1.0027141      24.420217      977859.99     -334450.46      26393.026     -308057.43     -307709.17    
    352000      252000   272.52028      1.0025356     -30.441208      978034.05     -334406.16      26617.656     -307788.5      -308222.7     
    353000      253000   270.04358      1.003956       178.29494      976650.31     -334469.75      26375.752     -308094        -305554.46    
    354000      254000   270.07307      1.0024676     -47.118609      978100.35     -334488.62      26378.631     -308109.99     -308782.12    
    355000      255000   271.75485      1.0036         11.488179      976996.76     -334315.97      26542.894     -307773.07     -307609.38    
    356000      256000   270.92193      1.0029907     -21.926968      977590.32     -334356.32      26461.541     -307894.78     -308207.39    
    357000      257000   273.89098      1.0033171      45.297035      977272.27     -334669.9       26751.536     -307918.36     -307272.76    
    358000      258000   269.33595      1.0009691     -143.71637      979564.7      -334331.01      26306.635     -308024.37     -310077.5     
    359000      259000   269.59382      1.0021149     -10.635987      978444.69     -334408.35      26331.822     -308076.53     -308228.3     
    360000      260000   270.92639      1.002146      -59.926833      978414.25     -334297.98      26461.977     -307836.01     -308691.11    
    361000      261000   270.33103      1.0021793     -27.52002       978381.8      -334505.75      26403.827     -308101.92     -308494.6     
    362000      262000   269.92374      1.0036645      51.276024      976934.03     -334508.76      26364.046     -308144.71     -307414.15    
    363000      263000   274.0236       1.0050695      88.254242      975568.27     -334860.77      26764.489     -308096.28     -306840.63    
    364000      264000   268.3131       1.0020692     -148.61735      978489.26     -334455.93      26206.731     -308249.2      -310370.01    
    365000      265000   270.4661       1.0018441     -105.75108      978709.16     -334564.47      26417.019     -308147.45     -309656.88    
    366000      266000   270.03341      1.0023246     -156.62268      978239.95     -334543.94      26374.758     -308169.18     -310403.66    
    367000      267000   269.73157      1.0030237     -147.981        977558.07     -334482.06      26345.277     -308136.78     -310246.5     
    368000      268000   269.83551      1.0027888      7.4363994      977787.14     -334591.72      26355.429     -308236.29     -308130.24    
    369000      269000   270.44106      1.0025431     -106.74897      978026.75     -334727.13      26414.574     -308312.56     -309835.17    
    370000      270000   270.51158      1.0026616     -134.31306      977911.2      -334499.74      26421.462     -308078.27     -309993.82    
    371000      271000   270.3639       1.001243      -137.97496      979296.68     -334587.3       26407.037     -308180.26     -310150.82    
    372000      272000   267.64251      1.0025045     -8.1401052      978064.44     -334523.52      26141.233     -308382.28     -308498.39    
    373000      273000   269.23867      1.0019575      98.059881      978598.34     -334405.33      26297.134     -308108.2      -306708.7     
    374000      274000   272.27719      1.0041163     -10.79347       976494.38     -334485.95      26593.912     -307892.04     -308045.75    
    375000      275000   270.3409       1.0041833      83.164539      976429.29     -334516.18      26404.792     -308111.39     -306927.11    
    376000      276000   270.26575      1.0023384      6.8778315      978226.44     -334591.38      26397.451     -308193.93     -308095.81    
    377000      277000   270.81808      1.001504      -66.983416      979041.5      -334556.53      26451.398     -308105.13     -309061.54    
    378000      278000   269.01532      1.0025375      21.869017      978032.21     -334037.03      26275.319     -307761.71     -307449.78    
    379000      279000   269.64559      1.0015553     -152.5042       978991.34     -334300.68      26336.879     -307963.8      -310141.19    
    380000      280000   270.483        1.0015709     -74.123319      978976.12     -334253.55      26418.671     -307834.88     -308893.17    
    381000      281000   270.79152      1.0030887     -23.267252      977494.74     -334369.35      26448.804     -307920.55     -308252.24    
    382000      282000   270.2957       1.0023291     -21.791682      978235.53     -334383.49      26400.376     -307983.11     -308294       
    383000      283000   271.19409      1.0021032     -16.559063      978456.11     -334692.57      26488.124     -308204.44     -308440.74    
    384000      284000   270.72676      1.003716       59.476976      976883.9      -334821.46      26442.479     -308378.98     -307531.62    
    385000      285000   272.11211      1.0019731      39.469558      978583.1      -334592.85      26577.79      -308015.06     -307451.77    
    386000      286000   271.84417      1.0013001      91.111239      979240.8      -334336.06      26551.618     -307784.45     -306483.27    
    387000      287000   268.10076      1.001309      -25.760104      979232.16     -334337.35      26185.992     -308151.35     -308519.24    
    388000      288000   271.43247      1.0027844      10.057113      977791.4      -334484.32      26511.407     -307972.91     -307829.5     
    389000      289000   271.41983      1.00184       -113.26083      978713.16     -334384.18      26510.173     -307874.01     -309490.64    
    390000      290000   269.47408      1.0028462     -7.4067073      977731.1      -334149.43      26320.127     -307829.3      -307934.92    
    391000      291000   270.17314      1.0018273     -11.227193      978725.55     -334320.45      26388.406     -307932.04     -308092.29    
    392000      292000   268.85099      1.0030793     -34.107976      977503.9      -334449.69      26259.269     -308190.42     -308676.66    
    393000      293000   269.55496      1.0035186      86.932836      977076        -334524.42      26328.027     -308196.39     -306957.63    
    394000      294000   269.01444      1.0039424      153.1591       976663.53     -334750.62      26275.233     -308475.39     -306293.84    
    395000      295000   270.19516      1.0019368      44.58537       978618.57     -334485.38      26390.556     -308094.82     -307458.49    
    396000      296000   271.002        1.0013206     -29.133591      979220.78     -334445.03      26469.363     -307975.66     -308391.72    
    397000      297000   271.34039      1.0019382      27.33389       978617.21     -334592.56      26502.414     -308090.15     -307700.03    
    398000      298000   269.01572      1.002852      -82.716241      977725.52     -334217.63      26275.358     -307942.27     -309121.73    
    399000      299000   268.14896      1.0028889     -51.330969      977689.48     -334513.17      26190.699     -308322.47     -309054.38    
    400000      300000   270.88412      1.0026205     -17.492928      977951.22     -334613.52      26457.849     -308155.67     -308405.16    
    401000      301000   271.44371      1.0027716      47.978345      977803.89     -334361.47      26512.505     -307848.97     -307164.78    
    402000      302000   269.98454      1.002532      -28.918186      978037.53     -334539.2       26369.984     -308169.21     -308581.69    
    403000      303000   270.29909      1.0020501     -71.492132      978507.9      -334642.79      26400.708     -308242.09     -309262.32    
    404000      304000   271.29667      1.0019856     -81.866199      978570.88     -334694.81      26498.144     -308196.66     -309365.01    
    405000      305000   270.57358      1.0020866     -33.982424      978472.26     -334383.01      26427.518     -307955.49     -308440.42    
    406000      306000   269.52659      1.0021186     -0.97991004     978441.04     -334669.42      26325.256     -308344.16     -308358.14    
    407000      307000   269.0279       1.0009119     -72.442868      979620.63     -334229.37      26276.548     -307952.82     -308987.8     
    408000      308000   271.31829      1.0038841      77.508839      976720.32     -334724.83      26500.255     -308224.58     -307120.51    
    409000      309000   271.13849      1.0018313     -114.32456      978721.63     -334393.42      26482.694     -307910.72     -309542.55    
    410000      310000   268.08839      1.0036592     -36.227835      976939.12     -334542.96      26184.784     -308358.17     -308874.34    
    411000      311000   267.78002      1.0040904      95.623571      976519.64     -334727.88      26154.665     -308573.22     -307211.39    
    412000      312000   271.35029      1.0035662      13.10362       977029.69     -334610.59      26503.381     -308107.21     -307920.5     
    413000      313000   269.54627      1.0018296     -129.9477       978723.33     -334619.77      26327.178     -308292.59     -310147.42    
    414000      314000   269.08451      1.0018163      17.369133      978736.24     -334225.11      26282.076     -307943.03     -307695.11    
    415000      315000   268.07065      1.0036673      38.959154      976931.23     -334492.89      26183.051     -308309.84     -307754.77    
    416000      316000   269.34433      1.0016846     -93.556104      978865        -334577.81      26307.454     -308270.36     -309605.94    
    417000      317000   268.7923       1.0018074      22.458263      978744.98     -334481.52      26253.536     -308227.98     -307907.41    
    418000      318000   268.42109      1.0043225      58.666117      976293.89     -334612.2       26217.28      -308394.92     -307559.62    
    419000      319000   269.82912      1.002716      -43.663722      977858.08     -334678.11      26354.805     -308323.3      -308945.99    
    420000      320000   266.29616      1.0022704      32.426392      978292.84     -334409.02      26009.732     -308399.28     -307936.64    
    421000      321000   270.2237       1.0029139     -96.339028      977665.13     -334801.83      26393.344     -308408.48     -309782.11    
    422000      322000   268.37231      1.0018242     -111.81408      978728.54     -334371.19      26212.514     -308158.68     -309754.68    
    423000      323000   268.41384      1.0040479     -0.36425417     976560.96     -334558.75      26216.571     -308342.18     -308347.36    
    424000      324000   271.32505      1.0003305     -94.177646      980190        -334434.17      26500.915     -307933.26     -309279.53    
    425000      325000   269.03895      1.0026957      92.673258      977877.86     -334403.45      26277.627     -308125.82     -306804.18    
    426000      326000   269.37362      1.0032573      53.640176      977330.49     -334607.54      26310.315     -308297.22     -307532.67    
    427000      327000   269.199        1.0026689      74.966234      977904.01     -334589.27      26293.259     -308296.02     -307226.87    
    428000      328000   267.43793      1.0022433     -22.082003      978319.28     -334590.06      26121.251     -308468.8      -308783.87    
    429000      329000   268.38901      1.0016935      99.067468      978856.24     -334830.15      26214.146     -308616.01     -307201.76    
    430000      330000   267.43244      1.0040029      12.937067      976604.75     -334729.28      26120.715     -308608.57     -308424.31    
    431000      331000   270.5842       1.0022645     -73.464143      978298.59     -334544.96      26428.555     -308116.41     -309164.56    
    432000      332000   269.28143      1.0030339     -4.0915835      977548.2      -334668.83      26301.31      -308367.52     -308425.86    
    433000      333000   270.39226      1.0025175     -48.246069      978051.75     -334755.51      26409.808     -308345.7      -309033.88    
    434000      334000   268.57313      1.0021857      83.423923      978375.52     -334412.45      26232.129     -308180.32     -306989.98    
    435000      335000   270.0567       1.0022073     -15.063801      978354.41     -334778.12      26377.033     -308401.08     -308616.02    
    436000      336000   269.8739       1.0042993      186.57374      976316.44     -334705.93      26359.179     -308346.75     -305690.21    
    437000      337000   267.44371      1.0025133     -39.006959      978055.85     -334362.23      26121.817     -308240.42     -308796.81    
    438000      338000   271.21952      1.0034944      184.6373       977099.62     -334515.55      26490.608     -308024.95     -305393.86    
    439000      339000   270.56864      1.0018411     -143.2086       978712        -334682.61      26427.035     -308255.57     -310299.66    
    440000      340000   268.34973      1.001887       34.957368      978667.24     -334267.48      26210.309     -308057.17     -307558.23    
    441000      341000   270.56749      1.0021889     -8.2211886      978372.39     -334640.72      26426.923     -308213.79     -308331.1     
    442000      342000   267.46823      1.0022209     -2.0440572      978341.17     -334207.75      26124.211     -308083.54     -308112.7     
    443000      343000   268.18816      1.0019578      4.37358        978598.03     -334342.29      26194.528     -308147.76     -308085.34    
    444000      344000   266.88273      1.0019027     -109.69971      978651.87     -334516.94      26067.024     -308449.92     -310015.62    
    445000      345000   269.04815      1.0016204      41.291513      978927.74     -334385.02      26278.525     -308106.49     -307516.99    
    446000      346000   270.83526      1.0016219      55.641774      978926.25     -334540.67      26453.077     -308087.59     -307293.21    
    447000      347000   271.12438      1.0018703     -83.233123      978683.48     -334569.62      26481.315     -308088.3      -309276.29    
    448000      348000   269.06294      1.002046      -50.708149      978511.89     -334852.05      26279.97      -308572.08     -309295.71    
    449000      349000   269.78672      1.0039377      52.46408       976668.11     -334519.85      26350.663     -308169.19     -307421.91    
    450000      350000   269.00024      1.0018462     -131.19656      978707.04     -334411.03      26273.846     -308137.19     -310009.81    
    451000      351000   269.8911       1.0023027     -3.5484227      978261.33     -334624.91      26360.858     -308264.05     -308314.68    
    452000      352000   269.46209      1.0024918     -92.154197      978076.78     -334485.08      26318.956     -308166.13     -309480.64    
    453000      353000   270.99331      1.0030735      19.740316      977509.62     -334762.15      26468.514     -308293.63     -308012.22    
    454000      354000   270.18471      1.0028039     -35.420445      977772.41     -334804.62      26389.535     -308415.08     -308920.17    
    455000      355000   269.86013      1.0023038     -15.241721      978260.25     -334675.52      26357.833     -308317.68     -308535.14    
    456000      356000   269.22172      1.0022388     -165.61188      978323.74     -334786.55      26295.478     -308491.07     -310854       
    457000      357000   270.03363      1.0029558     -1.1180015      977624.26     -334549.81      26374.78      -308175.03     -308190.97    
    458000      358000   269.76886      1.003059       16.563043      977523.69     -334615.71      26348.919     -308266.79     -308030.67    
    459000      359000   269.08848      1.001866      -107.44992      978687.71     -334336.5       26282.465     -308054.03     -309587.68    
    460000      360000   271.02841      1.0033696     -3.4134545      977221.13     -334609.86      26471.942     -308137.92     -308186.57    
    461000      361000   268.0272       1.0015612     -69.972177      978985.56     -334341.71      26178.807     -308162.9      -309161.93    
    462000      362000   268.98482      1.0019395     -76.718183      978615.93     -334684.51      26272.34      -308412.17     -309507.1     
    463000      363000   268.42951      1.0014368     -220.80088      979107.17     -334410.33      26218.101     -308192.23     -311345.11    
    464000      364000   268.22407      1.0028914     -156.94732      977687.07     -334728.96      26198.036     -308530.92     -310768.77    
    465000      365000   266.84832      1.002178      -9.2469227      978383.01     -334453.29      26063.663     -308389.63     -308521.57    
    466000      366000   266.25465      1.0003801     -92.897926      980141.43     -334674.15      26005.678     -308668.47     -309996.39    
    467000      367000   268.85845      1.0021439     -14.311433      978416.38     -334788.2       26259.997     -308528.21     -308732.42    
    468000      368000   268.95422      1.0034992     -119.67121      977094.92     -334738.4       26269.351     -308469.04     -310174.35    
    469000      369000   271.1257       1.0037708      68.209782      976830.55     -334665.54      26481.444     -308184.1      -307212.37    
    470000      370000   269.19068      1.0028308      47.016696      977746.17     -334613.46      26292.447     -308321.01     -307650.58    
    471000      371000   268.34916      1.0026562      43.656681      977916.4      -334604.92      26210.254     -308394.67     -307772.04    
    472000      372000   267.68054      1.0022507     -42.600179      978312.02     -334684.17      26144.948     -308539.22     -309147.03    
    473000      373000   269.35559      1.0013664      75.612537      979175.99     -334542.94      26308.554     -308234.38     -307154.62    
    474000      374000   267.94273      1.002427       34.394074      978140.05     -334644.03      26170.556     -308473.47     -307982.83    
    475000      375000   269.21819      1.002231       79.75677       978331.35     -334650.71      26295.133     -308355.58     -307217.61    
    476000      376000   270.06615      1.001851      -107.27555      978702.4      -334756.18      26377.956     -308378.23     -309909.41    
    477000      377000   269.12978      1.00361       -37.007334      976986.99     -334735.16      26286.498     -308448.66     -308975.95    
    478000      378000   268.18776      1.0012762     -55.256006      979264.27     -334304.4       26194.49      -308109.91     -308899.05    
    479000      379000   270.40696      1.0012274     -60.026486      979311.91     -334560.35      26411.243     -308149.11     -309006.42    
    480000      380000   270.4737       1.0038193      65.400016      976783.3      -334498.95      26417.762     -308081.19     -307149.54    
    481000      381000   269.20516      1.0021957     -82.423228      978365.77     -334580.68      26293.861     -308286.82     -309462.87    
    482000      382000   267.77363      1.0024639     -54.279024      978104.03     -334777.33      26154.04      -308623.29     -309397.56    
    483000      383000   269.75418      1.0019021     -39.328406      978652.49     -334596.44      26347.485     -308248.96     -308810.28    
    484000      384000   268.19596      1.0053302      133.90701      975315.3      -334483.29      26195.29      -308288        -306383.31    
    485000      385000   269.10573      1.002757      -39.199284      977818.12     -334397.49      26284.149     -308113.34     -308672.34    
    486000      386000   267.27344      1.0039991      147.36825      976608.4      -334621.48      26105.185     -308516.29     -306417.35    
    487000      387000   269.55932      1.0045164      114.90672      976105.44     -334547.62      26328.453     -308219.17     -306583.41    
    488000      388000   270.58355      1.0014772     -33.476286      979067.71     -334690.26      26428.491     -308261.77     -308739.77    
    489000      389000   269.18795      1.0015543     -65.1493        978992.33     -334483.77      26292.18      -308191.59     -309121.76    
    490000      390000   268.52193      1.0030705     -10.526739      977512.55     -334701.84      26227.128     -308474.71     -308624.78    
    491000      391000   270.04081      1.0018846      161.77426      978669.52     -334616.9       26375.481     -308241.42     -305932.44    
    492000      392000   271.33513      1.0027401      9.5617916      977834.56     -334691.08      26501.9       -308189.18     -308052.82    
    493000      393000   271.03834      1.0029732     -24.517297      977607.37     -334387.62      26472.912     -307914.71     -308264.26    
    494000      394000   269.96041      1.0019006     -58.219811      978653.96     -334775.19      26367.628     -308407.57     -309238.52    
    495000      395000   270.06312      1.0039459     -18.177418      976660.18     -334742.71      26377.66      -308365.05     -308623.96    
    496000      396000   267.57411      1.0001991     -102.27739      980318.77     -334435.23      26134.553     -308300.68     -309762.93    
    497000      397000   267.84221      1.0021457     -23.716205      978414.55     -334845.77      26160.739     -308685.03     -309023.44    
    498000      398000   267.90086      1.0026188      40.940328      977952.92     -334896.06      26166.467     -308729.59     -308145.68    
    499000      399000   269.27572      1.0038707      18.582497      976733.29     -334720.03      26300.753     -308419.28     -308154.58    
    500000      400000   268.94333      1.0025532     -43.553547      978016.88     -334721.96      26268.287     -308453.68     -309074.9     
    501000      401000   267.29773      1.0015283     -107.94023      979017.71     -334768.29      26107.558     -308660.74     -310201.9     
    502000      402000   269.53961      1.0023463     -34.273464      978218.81     -334612.11      26326.528     -308285.58     -308774.54    
    503000      403000   268.52175      1.0017056      7.8716107      978844.45     -334426.04      26227.111     -308198.93     -308086.56    
    504000      404000   268.22672      1.0020543     -165.30222      978503.85     -334400.53      26198.295     -308202.24     -310561.18    
    505000      405000   268.5502       1.0016228     -32.252712      978925.35     -334455         26229.89      -308225.12     -308685.58    
    506000      406000   270.05757      1.0026923      146.32698      977881.2      -334677.07      26377.118     -308299.95     -306213.12    
    507000      407000   270.13465      1.0034034      23.723         977188.23     -334606.9       26384.646     -308222.26     -307884.17    
    508000      408000   267.38409      1.0027987     -72.194648      977777.41     -334762.78      26115.993     -308646.78     -309676.27    
    509000      409000   269.83098      1.003386       42.002697      977205.12     -334335.03      26354.986     -307980.05     -307381.45    
    510000      410000   269.11193      1.0018473     -46.682362      978706.01     -334700.16      26284.755     -308415.4      -309081.72    
    511000      411000   268.82897      1.0020745     -4.0466797      978484.08     -334448.17      26257.118     -308191.05     -308248.8     
    512000      412000   269.66343      1.003394       82.684671      977197.35     -334543.12      26338.621     -308204.5      -307026.13    
    513000      413000   268.53321      1.0029515      79.948504      977628.54     -334515.54      26228.23      -308287.31     -307147.42    
    514000      414000   270.0837       1.0036903      59.399858      976908.9      -334877.52      26379.67      -308497.85     -307651.57    
    515000      415000   271.89333      1.0029569      36.696996      977623.19     -334898         26556.42      -308341.58     -307818.37    
    516000      416000   268.8826       1.0002678      2.8092856      980251.49     -334794.58      26262.356     -308532.23     -308492.06    
    517000      417000   268.14749      1.0035034      123.03904      977090.8      -334688.76      26190.557     -308498.21     -306744.92    
    518000      418000   268.31796      1.0030754     -34.641932      977507.71     -334804.3       26207.206     -308597.1      -309090.95    
    519000      419000   268.90986      1.0021742      21.440001      978386.74     -334724.69      26265.019     -308459.67     -308153.75    
[...]
  17271000     4871000   149.65631      0.97904596    -96.509816      1001499.4     -381723.4       14617.261     -367106.13     -368515.74    
  17272000     4872000   150.63166      0.98116853     76.490719      999332.86     -381712.58      14712.526     -367000.05     -365885.26    
  17273000     4873000   150.78943      0.97969719    -26.344368      1000833.7     -381767         14727.936     -367039.06     -367423.59    
  17274000     4874000   148.5552       0.98101761     70.751439      999486.6      -381712.97      14509.714     -367203.25     -366171.94    
  17275000     4875000   149.9805       0.97988013    -20.277437      1000646.8     -381759.48      14648.925     -367110.55     -367406.47    
  17276000     4876000   149.5228       0.98001631    -3.6074964      1000507.8     -381774.39      14604.221     -367170.17     -367222.81    
  17277000     4877000   148.83256      0.98023043     6.6884985      1000289.3     -381818.21      14536.804     -367281.41     -367183.83    
  17278000     4878000   149.15987      0.97995278     3.0675863      1000572.7     -381727.89      14568.773     -367159.11     -367114.35    
  17279000     4879000   150.67936      0.97941405    -50.320285      1001123       -381734.03      14717.185     -367016.84     -367751.54    
  17280000     4880000   149.61723      0.97983166     1.4507514      1000696.3     -381736.6       14613.444     -367123.15     -367101.98    
  17281000     4881000   149.40687      0.9798678     -8.3318827      1000659.4     -381746.3       14592.898     -367153.4      -367275       
  17282000     4882000   150.70562      0.97959243    -43.147788      1000940.7     -381747.75      14719.75      -367028        -367657.86    
  17283000     4883000   150.34932      0.97942057    -48.225402      1001116.4     -381822.96      14684.949     -367138.01     -367842.11    
  17284000     4884000   150.00805      0.9807478      46.624949      999761.57     -381880.26      14651.617     -367228.64     -366548.82    
  17285000     4885000   150.12453      0.97973468    -12.022564      1000795.4     -381805.94      14662.994     -367142.95     -367318.43    
  17286000     4886000   149.46719      0.97954843    -44.779617      1000985.7     -381691.51      14598.79      -367092.72     -367746.43    
  17287000     4887000   148.78932      0.97928243    -72.148621      1001257.6     -381728.43      14532.581     -367195.85     -368249.39    
  17288000     4888000   150.23164      0.97882464    -92.535745      1001725.9     -381759.5       14673.455     -367086.05     -368437.92    
  17289000     4889000   149.9867       0.97995577    -0.84002845     1000569.6     -381832.81      14649.531     -367183.28     -367195.54    
  17290000     4890000   150.28005      0.98003583    -17.346389      1000487.9     -381629.31      14678.183     -366951.12     -367204.23    
  17291000     4891000   149.59677      0.97996131    -13.302672      1000564       -381791.89      14611.446     -367180.45     -367374.56    
  17292000     4892000   148.97664      0.98022954    -0.16198637     1000290.2     -381849.16      14550.877     -367298.28     -367300.65    
  17293000     4893000   149.50347      0.98002989     3.7839718      1000493.9     -381769.6       14602.333     -367167.27     -367112.06    
  17294000     4894000   150.6144       0.97921445    -68.131402      1001327.1     -381801.04      14710.841     -367090.2      -368085.14    
  17295000     4895000   148.58855      0.9801704      17.119698      1000350.5     -381822.64      14512.971     -367309.67     -367059.91    
  17296000     4896000   150.8261       0.98025165     8.4819892      1000267.6     -381705.33      14731.517     -366973.82     -366850.08    
  17297000     4897000   150.38524      0.97979741    -26.882973      1000731.3     -381736.24      14688.457     -367047.78     -367440.13    
  17298000     4898000   150.29561      0.98009119    -1.119294       1000431.4     -381732.91      14679.703     -367053.2      -367069.53    
  17299000     4899000   149.45039      0.97955169    -69.327677      1000982.4     -381717.74      14597.149     -367120.59     -368132.66    
  17300000     4900000   149.97944      0.97978331    -16.940686      1000745.7     -381681.35      14648.822     -367032.53     -367279.77    
  17301000     4901000   150.17827      0.97969825    -16.841628      1000832.6     -381739.84      14668.243     -367071.6      -367317.42    
  17302000     4902000   150.16603      0.98064634     37.330032      999865.01     -381656.91      14667.047     -366989.86     -366445.51    
  17303000     4903000   150.57508      0.97979246    -11.252113      1000736.4     -381731.21      14707         -367024.21     -367188.43    
  17304000     4904000   149.21887      0.97988471    -19.474311      1000642.2     -381893.16      14574.535     -367318.62     -367602.82    
  17305000     4905000   151.68158      0.98023535     1.2685754      1000284.2     -381813.39      14815.074     -366998.31     -366979.81    
  17306000     4906000   150.41493      0.98067706     55.045735      999833.69     -381644.54      14691.358     -366953.18     -366150.53    
  17307000     4907000   150.61205      0.97959247    -46.140422      1000940.7     -381675.6       14710.61      -366964.99     -367638.54    
  17308000     4908000   150.51622      0.98043373     44.764155      1000081.8     -381745.01      14701.25      -367043.76     -366390.86    
  17309000     4909000   149.76784      0.97998158     3.2968479      1000543.3     -381780.71      14628.155     -367152.56     -367104.45    
  17310000     4910000   149.84711      0.98024938     19.921273      1000269.9     -381746.19      14635.897     -367110.29     -366819.68    
  17311000     4911000   149.96813      0.98030995     33.487301      1000208.1     -381769.11      14647.718     -367121.39     -366632.91    
  17312000     4912000   149.62007      0.97967678    -48.026056      1000854.5     -381851.46      14613.722     -367237.74     -367938.75    
  17313000     4913000   150.1098       0.97965932    -12.854651      1000872.4     -381608.01      14661.555     -366946.46     -367134.09    
  17314000     4914000   149.75386      0.97999472     28.994737      1000529.8     -381786.42      14626.789     -367159.63     -366736.55    
  17315000     4915000   150.74889      0.98049599     53.273231      1000018.3     -381784.11      14723.976     -367060.13     -366283.18    
  17316000     4916000   149.72318      0.98058997     55.764617      999922.49     -381760.27      14623.793     -367136.48     -366323.27    
  17317000     4917000   150.72553      0.9791919     -73.258541      1001350.2     -381758.35      14721.694     -367036.66     -368106.5     
  17318000     4918000   149.72573      0.97969301    -16.085093      1000838       -381809.26      14624.042     -367185.22     -367420       
  17319000     4919000   149.95681      0.98031559     13.78132       1000202.4     -381841.92      14646.612     -367195.31     -366994.28    
  17320000     4920000   150.74381      0.98004837    -6.4180692      1000475.1     -381841.92      14723.48      -367118.44     -367212.08    
  17321000     4921000   149.9339       0.98008865     7.9396123      1000433.9     -381810.64      14644.375     -367166.26     -367050.42    
  17322000     4922000   150.19538      0.98010225     9.3683585      1000420.1     -381683.84      14669.914     -367013.93     -366877.24    
  17323000     4923000   149.45418      0.9807537      59.687804      999755.56     -381795.53      14597.519     -367198.02     -366327.74    
  17324000     4924000   150.9274       0.98117524     101.1124       999326.03     -381727.21      14741.412     -366985.8      -365512.18    
  17325000     4925000   150.07289      0.97918938    -64.716088      1001352.7     -381806.46      14657.95      -367148.51     -368093.61    
  17326000     4926000   150.42778      0.98060776     73.055683      999904.35     -381687.86      14692.613     -366995.25     -365929.91    
  17327000     4927000   150.72511      0.98045375     19.994907      1000061.4     -381735.17      14721.653     -367013.52     -366721.89    
  17328000     4928000   148.89596      0.98056447     35.014921      999948.49     -381837.24      14542.996     -367294.24     -366783.61    
  17329000     4929000   149.62359      0.98095963     64.298058      999545.68     -381769.71      14614.065     -367155.65     -366218.35    
  17330000     4930000   149.79545      0.97990178    -12.570951      1000624.7     -381927.11      14630.852     -367296.26     -367479.71    
  17331000     4931000   150.44406      0.98044469     16.383492      1000070.7     -381906.38      14694.203     -367212.18     -366973.23    
  17332000     4932000   149.97445      0.97978033    -36.349114      1000748.8     -381763.95      14648.335     -367115.61     -367646.12    
  17333000     4933000   149.952        0.98022541     14.388279      1000294.4     -381721.5       14646.143     -367075.36     -366865.46    
  17334000     4934000   150.62537      0.97932548    -52.959612      1001213.6     -381658.91      14711.912     -366947        -367720.3     
  17335000     4935000   149.86562      0.97975062    -13.434033      1000779.1     -381833.09      14637.706     -367195.38     -367391.46    
  17336000     4936000   150.76884      0.98050964     44.040424      1000004.4     -381730.05      14725.925     -367004.12     -366361.84    
  17337000     4937000   150.33782      0.98018785     25.722696      1000332.7     -381739.14      14683.826     -367055.31     -366680.05    
  17338000     4938000   150.11026      0.97986097    -2.0346999      1000666.4     -381832.71      14661.6       -367171.11     -367200.81    
  17339000     4939000   149.73156      0.97959822    -45.991368      1000934.8     -381778.93      14624.612     -367154.32     -367825.68    
  17340000     4940000   149.62323      0.98009603    -16.229481      1000426.4     -381786.63      14614.031     -367172.6      -367409.39    
  17341000     4941000   149.62387      0.97957896    -32.193745      1000954.5     -381779.2       14614.093     -367165.1      -367635.06    
  17342000     4942000   149.33694      0.98056762     26.703209      999945.27     -381816.67      14586.068     -367230.6      -366841.19    
  17343000     4943000   150.20185      0.97949003    -30.840978      1001045.4     -381753.34      14670.546     -367082.79     -367533.05    
  17344000     4944000   150.4646       0.9795882     -29.117446      1000945       -381821.44      14696.209     -367125.23     -367550.28    
  17345000     4945000   150.9551       0.97927796    -48.535328      1001262.2     -381831.59      14744.117     -367087.48     -367796.21    
  17346000     4946000   150.43547      0.98070431     60.505308      999805.9      -381729.81      14693.364     -367036.45     -366154.21    
  17347000     4947000   150.27205      0.98067143     33.929701      999839.42     -381806.14      14677.403     -367128.74     -366633.99    
  17348000     4948000   149.22646      0.97902747    -91.907602      1001518.3     -381818.33      14575.277     -367243.05     -368585.47    
  17349000     4949000   149.87524      0.97985233     0.54879013     1000675.2     -381862.44      14638.645     -367223.79     -367215.78    
  17350000     4950000   151.31856      0.97991922    -9.9417582      1000606.9     -381701.18      14779.617     -366921.56     -367066.64    
  17351000     4951000   149.7292       0.98007009     3.7426734      1000452.9     -381723.51      14624.381     -367099.12     -367044.52    
  17352000     4952000   148.85286      0.97939334    -55.836149      1001144.2     -381843.2       14538.787     -367304.42     -368119.66    
  17353000     4953000   149.09505      0.97952809    -31.976153      1001006.5     -381709.28      14562.442     -367146.84     -367613.64    
  17354000     4954000   151.46876      0.98033134     24.851546      1000186.3     -381715.54      14794.287     -366921.25     -366558.75    
  17355000     4955000   151.67317      0.98073313     48.788812      999776.53     -381982.93      14814.253     -367168.68     -366457.3     
  17356000     4956000   150.13829      0.97962991    -37.034892      1000902.4     -381731.61      14664.337     -367067.28     -367607.88    
  17357000     4957000   150.4227       0.98109579     82.623443      999406.96     -381855.87      14692.117     -367163.75     -365959.49    
  17358000     4958000   149.50676      0.98003106    -4.3675881      1000492.7     -381721.53      14602.655     -367118.87     -367182.6     
  17359000     4959000   150.47013      0.98046893     29.711532      1000045.9     -381790.73      14696.749     -367093.98     -366660.65    
  17360000     4960000   150.26783      0.97991497    -18.660872      1000611.3     -381722.48      14676.99      -367045.49     -367317.8     
  17361000     4961000   147.9247       0.97949858    -65.008396      1001036.6     -381911.32      14448.131     -367463.19     -368412.25    
  17362000     4962000   149.97545      0.97982254    -3.463474       1000705.7     -381623.77      14648.432     -366975.34     -367025.89    
  17363000     4963000   149.7817       0.98006       -6.9168167      1000463.2     -381666.09      14629.509     -367036.58     -367137.5     
  17364000     4964000   149.06459      0.9800071      6.4240998      1000517.2     -381816.99      14559.467     -367257.52     -367163.78    
  17365000     4965000   149.34515      0.97923626    -89.870821      1001304.8     -381934.34      14586.87      -367347.47     -368659.85    
  17366000     4966000   150.71902      0.98070861     54.375096      999801.52     -381872.91      14721.059     -367151.85     -366359       
  17367000     4967000   151.07055      0.97921286    -73.863264      1001328.7     -381759.97      14755.393     -367004.58     -368083.23    
  17368000     4968000   149.90224      0.98063551     59.952805      999876.05     -381721.32      14641.282     -367080.03     -366205.79    
  17369000     4969000   150.61818      0.97978701    -13.660234      1000741.9     -381635.65      14711.21      -366924.44     -367123.81    
  17370000     4970000   150.12958      0.98068224     61.006947      999828.41     -381642.64      14663.487     -366979.16     -366089.59    
  17371000     4971000   150.66388      0.98063805     43.901282      999873.46     -381668.79      14715.673     -366953.12     -366312.94    
  17372000     4972000   150.90274      0.98013509     12.272967      1000386.5     -381718.11      14739.004     -366979.11     -366800.05    
  17373000     4973000   149.31326      0.98011901     6.0535096      1000403       -381728.27      14583.755     -367144.51     -367056.19    
  17374000     4974000   150.02192      0.98052739     52.869425      999986.3      -381731.27      14652.971     -367078.3      -366307.27    
  17375000     4975000   150.32024      0.98008127     19.180281      1000441.5     -381789.97      14682.109     -367107.86     -366828.01    
  17376000     4976000   149.92012      0.98049266     37.649721      1000021.7     -381756.16      14643.029     -367113.13     -366564.04    
  17377000     4977000   149.51912      0.97977759    -23.387334      1000751.6     -381708         14603.861     -367104.14     -367445.48    
  17378000     4978000   150.3301       0.9785632     -128.81135      1001993.5     -381797.41      14683.072     -367114.33     -368996.66    
  17379000     4979000   150.33607      0.98064513     57.27721       999866.24     -381698.98      14683.655     -367015.33     -366180.11    
  17380000     4980000   149.13998      0.97990555    -9.5474665      1000620.9     -381723.91      14566.83      -367157.08     -367296.4     
  17381000     4981000   150.64073      0.9806881      63.907834      999822.43     -381702.32      14713.412     -366988.91     -366057.05    
  17382000     4982000   150.28178      0.98043016     24.476629      1000085.5     -381681.34      14678.353     -367002.99     -366645.99    
  17383000     4983000   150.698        0.98032065     16.310914      1000197.2     -381884.01      14719.006     -367165.01     -366927.08    
  17384000     4984000   149.23126      0.97885271    -112.84295      1001697.1     -381820.28      14575.745     -367244.54     -368893.03    
  17385000     4985000   149.29165      0.9797286     -15.854468      1000801.6     -381863.8       14581.644     -367282.15     -367513.56    
  17386000     4986000   150.54881      0.97915666    -95.315495      1001386.2     -381727.76      14704.434     -367023.32     -368415.33    
  17387000     4987000   151.27424      0.98032003     17.69338       1000197.8     -381853.68      14775.288     -367078.39     -366820.3     
  17388000     4988000   150.44734      0.98031117     21.472938      1000206.9     -381851.14      14694.523     -367156.62     -366843.39    
  17389000     4989000   150.42923      0.98019284     18.235155      1000327.6     -381629.25      14692.755     -366936.5      -366670.47    
  17390000     4990000   150.07217      0.98013735    -4.8161768      1000384.2     -381743.65      14657.879     -367085.78     -367156.04    
  17391000     4991000   148.49036      0.98025715     4.8226428      1000262       -381757.72      14503.381     -367254.34     -367183.99    
  17392000     4992000   148.38242      0.98096556     54.275363      999539.63     -381904.23      14492.838     -367411.39     -366620.2     
  17393000     4993000   151.15975      0.97996106    -17.058316      1000564.2     -381768.6       14764.106     -367004.49     -367253.41    
  17394000     4994000   150.31406      0.9802157      14.445466      1000304.3     -381649.96      14681.506     -366968.45     -366757.72    
  17395000     4995000   149.44606      0.97942374    -66.581521      1001113.1     -381606.7       14596.726     -367009.97     -367982.07    
  17396000     4996000   149.67612      0.9788887     -82.908452      1001660.3     -381775.73      14619.197     -367156.54     -368367.68    
  17397000     4997000   150.41904      0.98036264     19.014879      1000154.3     -381731.12      14691.759     -367039.36     -366762       
  17398000     4998000   150.6977       0.98029481    -1.36964        1000223.5     -381842.39      14718.977     -367123.41     -367143.39    
  17399000     4999000   150.3307       0.98132582     112.36451      999172.69     -381815.97      14683.131     -367132.84     -365495.48    
  17400000     5000000   150.07514      0.98051519     17.723976      999998.74     -381808.97      14658.17      -367150.8      -366892.31    
Loop time of 17125.9 on 32 procs for 5000000 steps with 32768 atoms

Performance: 252.250 ns/day, 0.095 hours/ns, 291.956 timesteps/s, 9.567 Matom-step/s
100.0% CPU use with 32 MPI tasks x no OpenMP threads

MPI task timing breakdown:
Section |  min time  |  avg time  |  max time  |%varavg| %total
---------------------------------------------------------------
Pair    | 13328      | 14351      | 15211      | 359.9 | 83.80
Neigh   | 114.32     | 118.27     | 122.32     |  16.1 |  0.69
Comm    | 1444.8     | 2298.4     | 3325.5     | 902.0 | 13.42
Output  | 0.33057    | 0.3787     | 0.42851    |   4.6 |  0.00
Modify  | 265.08     | 308.29     | 348.89     | 126.5 |  1.80
Other   |            | 49.52      |            |       |  0.29

Nlocal:           1024 ave        1048 max         990 min
Histogram: 1 0 3 2 4 5 7 4 4 2
Nghost:        2996.97 ave        3044 max        2959 min
Histogram: 3 3 4 5 3 6 4 1 1 2
Neighs:              0 ave           0 max           0 min
Histogram: 32 0 0 0 0 0 0 0 0 0
FullNghs:      96327.2 ave       99526 max       92094 min
Histogram: 1 1 0 4 5 9 3 6 2 1

Total # of neighbors = 3082472
Ave neighs/atom = 94.06958
Neighbor list builds = 40170
Dangerous builds = 0
System init for write_data ...
Total wall time: 19:45:13
