units           real
atom_style      atomic
atom_modify     map array
boundary        p p p

# define location of atoms
read_data	mw.data
Reading data file ...
  orthogonal box = (0 0 0) to (101.6 101.6 101.6)
  2 by 4 by 4 MPI processor grid
  reading atoms ...
  32768 atoms
  read_data CPU = 0.081 seconds


#Stillinger-Weber potentials defined
#sw must start with '* *'
pair_style      sw
pair_coeff      * * mW.sw mW

velocity	all create 150.0 89653
run		0
WARNING: No fixes with time integration, atoms won't move (../verlet.cpp:60)
Neighbor list info ...
  update: every = 1 steps, delay = 0 steps, check = yes
  max neighbors/atom: 2000, page size: 100000
  master list distance cutoff = 6.3065
  ghost atom cutoff = 6.3065
  binsize = 3.15325, bins = 33 33 33
  1 neighbor lists, perpetual/occasional/extra = 1 0 0
  (1) pair sw, perpetual
      attributes: full, newton on
      pair build: full/bin/atomonly
      stencil: full/bin/3d
      bin: standard
Per MPI rank memory allocation (min/avg/max) = 3.258 | 3.258 | 3.258 Mbytes
   Step          Temp          E_pair         E_mol          TotEng         Press     
         0   150           -281369.95      0             -266719.12      25050.245    
Loop time of 4.83166e-06 on 32 procs for 0 steps with 32768 atoms

10.3% CPU use with 32 MPI tasks x no OpenMP threads

MPI task timing breakdown:
Section |  min time  |  avg time  |  max time  |%varavg| %total
---------------------------------------------------------------
Pair    | 0          | 0          | 0          |   0.0 |  0.00
Neigh   | 0          | 0          | 0          |   0.0 |  0.00
Comm    | 0          | 0          | 0          |   0.0 |  0.00
Output  | 0          | 0          | 0          |   0.0 |  0.00
Modify  | 0          | 0          | 0          |   0.0 |  0.00
Other   |            | 4.832e-06  |            |       |100.00

Nlocal:           1024 ave        1024 max        1024 min
Histogram: 32 0 0 0 0 0 0 0 0 0
Nghost:           1565 ave        1565 max        1565 min
Histogram: 32 0 0 0 0 0 0 0 0 0
Neighs:              0 ave           0 max           0 min
Histogram: 32 0 0 0 0 0 0 0 0 0
FullNghs:        28672 ave       28672 max       28672 min
Histogram: 32 0 0 0 0 0 0 0 0 0

Total # of neighbors = 917504
Ave neighs/atom = 28
Neighbor list builds = 0
Dangerous builds = 0
velocity	all scale 150.0

#dump file for vmd          frames/N
dump		1 all custom 50000 dump.mw1.lammpstrj id mass x y z fx fy fz

#thermo output
thermo_style    custom step elapsed temp density press vol pe ke etotal enthalpy

thermo_modify	lost warn
# shows thermo output every N steps
thermo          1000

# distance in angstroms that that are included as neighbors
neighbor        4.5 bin
neigh_modify    every 1 delay 0 check yes

#fix temp or fix temp/press   tstart/tstop/tdamp    pstart/pstop/pdamp
fix             1 all npt temp 150.0 150.0 100 iso 1.0 1.0 500
#fix             1 all nvt temp 300.0 200.0 25
# femtoseconds
timestep        10.0
run		500000
Per MPI rank memory allocation (min/avg/max) = 3.351 | 3.351 | 3.351 Mbytes
   Step       Elapsed        Temp         Density         Press          Volume         PotEng         KinEng         TotEng        Enthalpy   
         0           0   150            0.93491614     25050.245      1048772.1     -281369.95      14650.83      -266719.12      116431.02    
      1000        1000   150.47178      0.98539404     37.650268      995047.59     -365060.37      14696.91      -350363.46     -349817.09    
      2000        2000   151.18776      0.98244932    -38.111105      998030.06     -368251.56      14766.841     -353484.72     -354039.43    
      3000        3000   149.88356      0.98336604     60.688504      997099.68     -370483.92      14639.457     -355844.46     -354961.95    
      4000        4000   149.536        0.98227462    -14.531574      998207.57     -371789.97      14605.51      -357184.46     -357396       
      5000        5000   151.04167      0.98243628    -1.3464605      998043.31     -373053.49      14752.573     -358300.92     -358320.52    
      6000        6000   150.00071      0.98274262     34.322411      997732.21     -373928.85      14650.9       -359277.95     -358778.53    
      7000        7000   149.56091      0.98227027    -1.9998452      998211.99     -374657.28      14607.944     -360049.34     -360078.45    
      8000        8000   149.27939      0.98294057     13.436298      997531.27     -375477.29      14580.447     -360896.84     -360701.37    
      9000        9000   150.32986      0.98233657    -49.038317      998144.61     -376262.07      14683.049     -361579.02     -362292.87    
     10000       10000   149.33328      0.98201292    -69.315969      998473.58     -377049.26      14585.71      -362463.54     -363472.9     
     11000       11000   150.31492      0.98353691     35.464656      996926.45     -377646.07      14681.59      -362964.48     -362448.86    
     12000       12000   151.11549      0.98216199    -56.018747      998322.04     -378484.04      14759.783     -363724.26     -364539.87    
     13000       13000   150.20496      0.98253889    -15.65871       997939.08     -378937.21      14670.85      -364266.36     -364494.26    
     14000       14000   149.79455      0.98356398     76.124307      996899.01     -379220.33      14630.764     -364589.56     -363482.81    
     15000       15000   150.6837       0.98348223     26.685421      996981.88     -379834.54      14717.609     -365116.93     -364728.93    
     16000       16000   149.55085      0.98334896    -23.721905      997116.99     -380343.09      14606.961     -365736.13     -366081.09    
     17000       17000   149.25271      0.98406252    -18.348179      996393.96     -380868.93      14577.841     -366291.09     -366557.71    
     18000       18000   150.65555      0.98428898     30.841797      996164.72     -381436.5       14714.859     -366721.65     -366273.57    
     19000       19000   150.31236      0.98350065    -60.318826      996963.21     -381887.08      14681.339     -367205.74     -368082.75    
     20000       20000   149.47065      0.98404307    -9.5073104      996413.66     -382143.17      14599.127     -367544.04     -367682.2     
     21000       21000   149.25554      0.9854871      79.393006      994953.63     -382715.26      14578.117     -368137.14     -366985.12    
     22000       22000   150.98193      0.98479458    -12.106732      995653.29     -383248.07      14746.737     -368501.33     -368677.13    
     23000       23000   149.30492      0.98451546    -58.426971      995935.56     -383465.42      14582.94      -368882.48     -369731.11    
     24000       24000   151.13787      0.98685165     110.06669      993577.87     -383865.24      14761.969     -369103.27     -367508.37    
     25000       25000   150.66368      0.98543915    -16.177429      995002.04     -384115.2       14715.653     -369399.54     -369634.29    
     26000       26000   148.90183      0.98526966    -42.649378      995173.2      -384484.12      14543.57      -369940.55     -370559.55    
     27000       27000   150.01641      0.98631562     46.463965      994117.84     -384607.07      14652.434     -369954.64     -369280.99    
     28000       28000   149.79408      0.98704671     66.398267      993381.52     -384860.47      14630.718     -370229.76     -369267.81    
     29000       29000   150.35243      0.98617814    -3.7357497      994256.43     -385137.53      14685.253     -370452.28     -370506.44    
     30000       30000   149.8242       0.9859097     -20.301135      994527.15     -385134.66      14633.659     -370501        -370795.46    
     31000       31000   149.96481      0.9866478     -9.7655731      993783.16     -385293.52      14647.394     -370646.13     -370787.67    
     32000       32000   148.98699      0.98662341    -9.4705825      993807.72     -385398.53      14551.887     -370846.65     -370983.91    
     33000       33000   150.0695       0.98662763     3.661991       993803.47     -385567.39      14657.619     -370909.77     -370856.69    
     34000       34000   150.84719      0.98653892    -23.566526      993892.83     -385829.25      14733.578     -371095.67     -371437.27    
     35000       35000   150.12816      0.98651098    -22.777222      993920.98     -385815.29      14663.348     -371151.94     -371482.1     
     36000       36000   149.46403      0.98695761     24.120322      993471.2      -385940.86      14598.481     -371342.38     -370992.91    
     37000       37000   149.92029      0.9871543      19.572517      993273.25     -386256.09      14643.045     -371613.05     -371329.52    
     38000       38000   149.51997      0.98704108    -8.453009       993387.18     -386399.35      14603.944     -371795.41     -371917.87    
     39000       39000   149.4061       0.98680977    -36.214326      993620.04     -386396.89      14592.823     -371804.07     -372328.85    
     40000       40000   149.13093      0.98719594    -2.4766681      993231.35     -386498.99      14565.947     -371933.05     -371968.92    
     41000       41000   149.27784      0.98746561     14.74495       992960.11     -386643         14580.296     -372062.7      -371849.18    
     42000       42000   148.84217      0.98814636     53.807471      992276.05     -386643.34      14537.743     -372105.6      -371326.93    
     43000       43000   150.42758      0.98733229     20.605129      993094.19     -386685.53      14692.593     -371992.94     -371694.51    
     44000       44000   148.395        0.98781919     19.296998      992604.69     -386799.5       14494.067     -372305.44     -372026.09    
     45000       45000   149.90814      0.98766634     11.403736      992758.3      -386884.19      14641.858     -372242.33     -372077.22    
     46000       46000   150.23403      0.9883858      50.489206      992035.66     -387150.72      14673.689     -372477.03     -371746.56    
     47000       47000   149.04777      0.98710083    -53.717001      993327.06     -387153.68      14557.824     -372595.86     -373374.04    
     48000       48000   149.21493      0.98759511    -28.212507      992829.91     -387297.63      14574.151     -372723.48     -373131.98    
     49000       49000   149.40243      0.9882603      23.027833      992161.64     -387273.5       14592.464     -372681.03     -372347.83    
     50000       50000   149.43073      0.98773949    -20.368313      992684.78     -387472.21      14595.229     -372876.98     -373171.86    
     51000       51000   150.35772      0.98834267     35.327892      992078.95     -387431.3       14685.77      -372745.53     -372234.39    
     52000       52000   150.24612      0.98763794    -30.995954      992786.85     -387556.74      14674.869     -372881.87     -373330.66    
     53000       53000   150.15879      0.98871883     57.806414      991701.51     -387786.91      14666.34      -373120.58     -372284.52    
     54000       54000   149.92224      0.98883451     51.720972      991585.5      -387842.08      14643.236     -373198.84     -372450.89    
     55000       55000   149.34626      0.98838071     14.240139      992040.77     -388021.96      14586.978     -373434.98     -373228.95    
     56000       56000   151.11442      0.98837075     32.649418      992050.76     -388037.49      14759.679     -373277.81     -372805.44    
     57000       57000   150.41484      0.98814037    -25.57461       992282.06     -387901.96      14691.349     -373210.61     -373580.71    
     58000       58000   150.33025      0.98794252    -15.096866      992480.77     -388001.9       14683.086     -373318.81     -373537.33    
     59000       59000   149.45018      0.9884029      15.726805      992018.5      -387956.3       14597.129     -373359.17     -373131.64    
     60000       60000   149.8997       0.98919963     72.08558       991219.5      -387967.73      14641.034     -373326.7      -372284.64    
     61000       61000   150.36987      0.9885026      23.227372      991918.44     -387938.78      14686.957     -373251.82     -372915.81    
     62000       62000   150.0934       0.98755435    -57.745498      992870.89     -387943.67      14659.953     -373283.72     -374119.87    
     63000       63000   150.04325      0.98771693    -44.224821      992707.46     -388066.04      14655.055     -373410.98     -374051.25    
     64000       64000   149.43987      0.98797222    -21.077292      992450.94     -388036.87      14596.122     -373440.75     -373745.82    
     65000       65000   149.93737      0.98809406    -16.643452      992328.57     -388056.57      14644.713     -373411.86     -373652.73    
     66000       66000   149.67106      0.98755961    -38.151177      992865.6      -387986.68      14618.702     -373367.98     -373920.41    
     67000       67000   150.78084      0.98795852    -17.827167      992464.7      -388156.02      14727.097     -373428.92     -373686.95    
     68000       68000   150.8166       0.98846242     29.111259      991958.76     -387978.78      14730.589     -373248.19     -372827.05    
     69000       69000   149.84213      0.98868622     39.846982      991734.22     -388107.65      14635.411     -373472.24     -372895.91    
     70000       70000   150.26194      0.98757383    -51.297997      992851.3      -387927.52      14676.414     -373251.11     -373993.89    
     71000       71000   149.0318       0.98856083     24.515778      991860.02     -388136.25      14556.264     -373579.98     -373225.35    
     72000       72000   150.36138      0.98907304     75.016879      991346.36     -388066.05      14686.127     -373379.92     -372295.34    
     73000       73000   150.51677      0.98861209     28.185403      991808.59     -388187.3       14701.304     -373486        -373078.31    
     74000       74000   150.68731      0.9884079      12.336505      992013.48     -388180.59      14717.961     -373462.63     -373284.15    
     75000       75000   149.66586      0.98808603    -17.8192        992336.63     -388123.81      14618.194     -373505.62     -373763.5     
     76000       76000   150.38032      0.98841163     18.447078      992009.73     -388147.31      14687.978     -373459.34     -373192.45    
     77000       77000   149.45793      0.98773047    -22.130564      992693.85     -388142.29      14597.885     -373544.41     -373864.8     
     78000       78000   150.57782      0.9875718     -51.198566      992853.34     -388040.94      14707.268     -373333.67     -374075.02    
     79000       79000   150.45264      0.98894058     59.348316      991479.15     -388246.25      14695.041     -373551.21     -372693.05    
     80000       80000   150.88597      0.98812085    -1.4077345      992301.66     -388238.31      14737.365     -373500.95     -373521.32    
     81000       81000   149.52056      0.98810654    -2.7333304      992316.03     -388198.5       14604.002     -373594.5      -373634.05    
     82000       82000   149.34244      0.98774247    -45.778884      992681.79     -388169.04      14586.605     -373582.44     -374245.19    
     83000       83000   150.98753      0.98813509     0.14155662     992287.36     -388233.26      14747.285     -373485.98     -373483.93    
     84000       84000   150.51545      0.98832187    -1.6829096      992099.83     -388202.71      14701.175     -373501.54     -373525.89    
     85000       85000   149.68803      0.98810782    -18.448292      992314.75     -388292.42      14620.36      -373672.06     -373939.04    
     86000       86000   150.54944      0.98802189    -5.1436088      992401.05     -388142.21      14704.496     -373437.71     -373512.15    
     87000       87000   150.61497      0.9886902      50.741183      991730.23     -388200.67      14710.896     -373489.77     -372755.89    
     88000       88000   150.42029      0.98831721     12.330577      992104.5      -388205.75      14691.881     -373513.87     -373335.46    
     89000       89000   149.12954      0.98828915    -5.2421355      992132.68     -388124.89      14565.811     -373559.08     -373634.93    
     90000       90000   150.50812      0.98810837    -21.882201      992314.19     -388284.26      14700.46      -373583.8      -373900.48    
     91000       91000   150.5417       0.9880133     -25.823263      992409.67     -388223.66      14703.739     -373519.92     -373893.67    
     92000       92000   149.25996      0.98848862     21.537823      991932.47     -388235.7       14578.549     -373657.15     -373345.58    
     93000       93000   149.46971      0.98778061    -29.39029       992643.46     -388356.66      14599.036     -373757.62     -374183.1     
     94000       94000   149.67639      0.98740069    -52.966044      993025.39     -388219.2       14619.223     -373599.97     -374367.04    
     95000       95000   149.67774      0.98880718     50.908748      991612.91     -388221.4       14619.355     -373602.05     -372865.82    
     96000       96000   150.22161      0.98864586     36.895687      991774.71     -388158.98      14672.475     -373486.5      -372952.84    
     97000       97000   149.72789      0.98925208     80.740752      991166.94     -388199.44      14624.253     -373575.18     -372408.07    
     98000       98000   149.59633      0.98766237    -50.028885      992762.29     -388345.81      14611.403     -373734.41     -374458.75    
     99000       99000   150.52347      0.98708123    -81.975725      993346.78     -388122.56      14701.959     -373420.61     -374608.18    
    100000      100000   150.28901      0.98863402     38.155964      991786.59     -388316.34      14679.058     -373637.29     -373085.39    
    101000      101000   149.29786      0.98845593     16.054533      991965.28     -388236.2       14582.251     -373653.94     -373421.69    
    102000      102000   149.56385      0.98847183     10.207773      991949.32     -388226.67      14608.231     -373618.44     -373470.77    
    103000      103000   149.42025      0.98794117    -30.296822      992482.13     -388284.17      14594.205     -373689.97     -374128.49    
    104000      104000   150.02636      0.98836954     5.7632733      992051.98     -388260.75      14653.405     -373607.34     -373523.96    
    105000      105000   150.08847      0.98865585     35.179067      991764.68     -388389.61      14659.471     -373730.14     -373221.32    
    106000      106000   151.19274      0.98804208    -3.5683213      992380.77     -388293.83      14767.328     -373526.5      -373578.15    
    107000      107000   149.71988      0.98912233     56.243362      991296.96     -388226.16      14623.47      -373602.69     -372789.58    
    108000      108000   149.56659      0.98807904    -36.671335      992343.64     -388308.74      14608.498     -373700.25     -374230.96    
    109000      109000   149.43735      0.98780323    -47.456646      992620.73     -388336.82      14595.875     -373740.95     -374427.95    
    110000      110000   149.50278      0.98831961    -12.131523      992102.1      -388405.83      14602.266     -373803.56     -373979.09    
    111000      111000   149.06742      0.9885608     -3.6462127      991860.05     -388387.82      14559.744     -373828.08     -373880.82    
    112000      112000   150.22979      0.98903672     62.319092      991382.76     -388240.78      14673.275     -373567.5      -372666.47    
    113000      113000   150.35317      0.98852026     13.980929      991900.72     -388185.36      14685.326     -373500.04     -373297.79    
    114000      114000   150.41984      0.98890682     33.75003       991512.99     -388268.64      14691.837     -373576.81     -373088.77    
    115000      115000   149.22593      0.98845533     13.49295       991965.88     -388262.16      14575.226     -373686.94     -373491.74    
    116000      116000   149.51035      0.9882596     -5.2955349      992162.34     -388279.08      14603.005     -373676.08     -373752.7     
    117000      117000   149.54257      0.98861615     29.257775      991804.52     -388190.22      14606.153     -373584.07     -373160.87    
    118000      118000   149.04312      0.9880237     -17.902393      992399.23     -388334.99      14557.37      -373777.62     -374036.72    
    119000      119000   150.24951      0.9892668      91.284941      991152.19     -388205.74      14675.201     -373530.54     -372211.03    
    120000      120000   150.64022      0.98792314    -16.004334      992500.25     -388246.91      14713.362     -373533.55     -373765.21    
    121000      121000   150.11985      0.98851421     17.599934      991906.79     -388174.66      14662.537     -373512.12     -373257.52    
    122000      122000   149.99909      0.98836753    -12.130816      992054        -388305.32      14650.742     -373654.57     -373830.08    
    123000      123000   149.57233      0.98781242    -55.312856      992611.49     -388301.86      14609.059     -373692.8      -374493.52    
    124000      124000   149.72696      0.98840389     8.8305811      992017.5      -388282.63      14624.162     -373658.47     -373530.72    
    125000      125000   149.96443      0.98796487    -29.974871      992458.33     -388313.04      14647.356     -373665.68     -374099.54    
    126000      126000   149.99838      0.98869132     16.882077      991729.11     -388169.54      14650.672     -373518.87     -373274.7     
    127000      127000   148.41345      0.98786711    -50.893135      992556.54     -388317.19      14495.869     -373821.32     -374558.02    
    128000      128000   149.87127      0.98764207    -58.958954      992782.7      -388356.6       14638.257     -373718.34     -374571.99    
    129000      129000   150.54031      0.98773183    -61.290366      992692.48     -388335.58      14703.604     -373631.98     -374519.3     
    130000      130000   149.49055      0.988232      -9.2388187      992190.05     -388233.15      14601.072     -373632.08     -373765.77    
    131000      131000   151.67253      0.98850424     17.856039      991916.79     -388430.74      14814.19      -373616.55     -373358.24    
    132000      132000   149.48978      0.98810006    -24.919363      992322.53     -388283.53      14600.996     -373682.54     -374043.17    
    133000      133000   150.64929      0.98848656     12.37078       991934.54     -388354.33      14714.248     -373640.08     -373461.12    
    134000      134000   149.74091      0.98802381    -26.462097      992399.12     -388283.42      14625.525     -373657.89     -374040.88    
    135000      135000   149.90478      0.98820309     6.9884502      992219.08     -388287.05      14641.53      -373645.52     -373544.4     
    136000      136000   149.39423      0.98820564    -0.66566665     992216.52     -388402.58      14591.664     -373810.92     -373820.55    
    137000      137000   148.75738      0.98799578    -23.089425      992427.28     -388345.99      14529.461     -373816.53     -374150.71    
    138000      138000   150.38483      0.9890825      71.967626      991336.88     -388412.35      14688.418     -373723.93     -372683.45    
    139000      139000   149.30754      0.98840148     10.219823      992019.92     -388343.94      14583.197     -373760.75     -373612.89    
    140000      140000   150.34098      0.98772943    -52.470001      992694.89     -388317.7       14684.134     -373633.56     -374393.19    
    141000      141000   150.07405      0.98798428    -28.223779      992438.82     -388370.75      14658.063     -373712.69     -374121.19    
    142000      142000   149.41235      0.98837447    -2.6688671      992047.03     -388386.7       14593.433     -373793.27     -373831.89    
    143000      143000   150.59483      0.9882887     -0.28500839     992133.13     -388389.36      14708.928     -373680.44     -373684.56    
    144000      144000   149.72944      0.9877709     -45.706505      992653.22     -388222.78      14624.405     -373598.38     -374260.06    
    145000      145000   149.41659      0.98735854    -65.57536       993067.78     -388205.11      14593.847     -373611.27     -374560.99    
    146000      146000   151.14576      0.98880907     32.740622      991611.01     -388354.56      14762.739     -373591.82     -373118.33    
    147000      147000   149.22523      0.98868535     40.863518      991735.09     -388319.07      14575.157     -373743.91     -373152.89    
    148000      148000   149.34726      0.98768511    -52.415466      992739.43     -388313.19      14587.076     -373726.11     -374484.99    
    149000      149000   149.50701      0.98857168     27.979814      991849.13     -388249.37      14602.679     -373646.69     -373241.96    
    150000      150000   149.04077      0.98807101    -33.381026      992351.71     -388347.02      14557.141     -373789.88     -374272.98    
    151000      151000   150.36223      0.9877569     -34.178347      992667.28     -388349.8       14686.21      -373663.59     -374158.39    
    152000      152000   150.33277      0.98801037    -16.893145      992412.62     -388355.15      14683.333     -373671.82     -373916.32    
    153000      153000   149.62619      0.98808224    -9.0364305      992340.44     -388294.98      14614.32      -373680.66     -373811.44    
    154000      154000   149.65929      0.98795852    -19.96083       992464.71     -388382.35      14617.553     -373764.8      -374053.71    
    155000      155000   149.70225      0.98829059     5.821351       992131.23     -388363.33      14621.749     -373741.58     -373657.35    
    156000      156000   149.93707      0.98760454    -44.952007      992820.43     -388344.11      14644.684     -373699.43     -374350.3     
    157000      157000   150.18729      0.98771333    -37.928935      992711.07     -388312.42      14669.124     -373643.3      -374192.42    
    158000      158000   150.47514      0.98812585    -7.1922312      992296.64     -388520.56      14697.239     -373823.32     -373927.4     
    159000      159000   150.44984      0.98809937    -12.083298      992323.23     -388340.64      14694.767     -373645.87     -373820.74    
    160000      160000   149.60594      0.98987795     125.12836      990540.25     -388440.91      14612.342     -373828.57     -372020.97    
    161000      161000   149.93553      0.98828005    -12.693229      992141.81     -388430.48      14644.534     -373785.94     -373969.61    
    162000      162000   150.36958      0.98826752    -12.966684      992154.39     -388438.64      14686.928     -373751.71     -373939.34    
    163000      163000   149.55079      0.98896955     52.654961      991450.1      -388569.48      14606.956     -373962.52     -373201.17    
    164000      164000   150.11785      0.98827837    -8.4529177      992143.5      -388410.25      14662.341     -373747.91     -373870.21    
    165000      165000   150.90103      0.98838327     18.800066      992038.2      -388344.52      14738.836     -373605.69     -373333.69    
    166000      166000   150.57127      0.98854409     21.88901       991876.81     -388482.94      14706.628     -373776.31     -373459.68    
    167000      167000   149.85941      0.98871355     36.63527       991706.81     -388494.19      14637.099     -373857.1      -373327.24    
    168000      168000   150.34958      0.98853722     7.5599286      991883.7      -388482.17      14684.975     -373797.2      -373687.84    
    169000      169000   149.98101      0.9883152      0.45824101     992106.53     -388437.55      14648.976     -373788.57     -373781.94    
    170000      170000   150.2258       0.98877913     38.640632      991641.03     -388413.83      14672.885     -373740.95     -373182.12    
    171000      171000   149.58554      0.98927118     79.352197      991147.81     -388397.88      14610.349     -373787.53     -372640.5     
    172000      172000   148.1379       0.98844694     5.1656212      991974.3      -388453.08      14468.955     -373984.13     -373909.4     
    173000      173000   151.13089      0.98859975     15.781527      991820.97     -388419.29      14761.287     -373658        -373429.73    
    174000      174000   150.08534      0.98789838    -38.104166      992525.12     -388453.1       14659.166     -373793.93     -374345.49    
    175000      175000   149.84211      0.98879185     23.025499      991628.27     -388650.11      14635.409     -374014.71     -373681.71    
    176000      176000   149.83227      0.98923272     49.639107      991186.34     -388568.77      14634.448     -373934.32     -373216.77    
    177000      177000   150.17166      0.98812214    -30.336045      992300.37     -388527.02      14667.597     -373859.42     -374298.43    
    178000      178000   150.52849      0.98921108     67.090989      991208.02     -388430.06      14702.45      -373727.61     -372757.76    
    179000      179000   150.86025      0.98762447    -59.276458      992800.4      -388418.73      14734.853     -373683.88     -374542.14    
    180000      180000   150.81252      0.98868923     29.734417      991731.21     -388652.52      14730.191     -373922.33     -373492.27    
    181000      181000   151.1589       0.98898241     57.391203      991437.21     -388616.22      14764.022     -373852.2      -373022.37    
    182000      182000   149.91953      0.9878144     -55.165762      992609.5      -388631.3       14642.971     -373988.33     -374786.92    
    183000      183000   150.49351      0.98796855    -40.624928      992454.62     -388540.34      14699.032     -373841.3      -374429.31    
    184000      184000   150.37578      0.98836314    -5.5565334      992058.4      -388513.08      14687.533     -373825.55     -373905.94    
    185000      185000   151.30171      0.98895827     34.564777      991461.41     -388396.63      14777.971     -373618.66     -373118.87    
    186000      186000   150.09792      0.98955543     90.298385      990863.09     -388473.32      14660.395     -373812.93     -372508.05    
    187000      187000   150.37382      0.98907411     47.821412      991345.29     -388413.05      14687.342     -373725.71     -373034.32    
    188000      188000   151.24254      0.98866789     29.685621      991752.61     -388408.38      14772.193     -373636.19     -373206.83    
    189000      189000   149.13135      0.98843096    -3.6992442      991990.34     -388549.49      14565.987     -373983.5      -374037.02    
    190000      190000   148.72598      0.98930451     67.518626      991114.42     -388611.66      14526.394     -374085.26     -373109.32    
    191000      191000   150.48256      0.98852639     18.736791      991894.57     -388535.3       14697.963     -373837.34     -373566.3     
    192000      192000   151.06995      0.98838653     13.312696      992034.93     -388504.16      14755.334     -373748.82     -373556.22    
    193000      193000   150.27928      0.98854287     18.180507      991878.03     -388459.11      14678.108     -373781        -373518.01    
    194000      194000   149.07192      0.98750163    -80.504656      992923.89     -388492.25      14560.182     -373932.07     -375097.84    
    195000      195000   150.27284      0.98783911    -42.803448      992584.67     -388591.34      14677.479     -373913.86     -374533.48    
    196000      196000   149.83474      0.98805931    -35.780155      992363.46     -388675.11      14634.689     -374040.42     -374558.25    
    197000      197000   149.66842      0.98881383     25.018315      991606.24     -388630.53      14618.444     -374012.09     -373650.28    
    198000      198000   150.13759      0.98943137     76.500585      990987.34     -388650.86      14664.269     -373986.59     -372880.96    
    199000      199000   149.50236      0.98934938     78.227605      991069.46     -388511.74      14602.225     -373909.51     -372778.83    
    200000      200000   150.5559       0.98820849    -7.5302924      992213.66     -388632.59      14705.127     -373927.47     -374036.43    
    201000      201000   150.41975      0.98805881    -22.43806       992363.97     -388551.76      14691.829     -373859.94     -374184.67    
    202000      202000   149.31743      0.98869505     27.338701      991725.36     -388435.81      14584.162     -373851.64     -373456.24    
    203000      203000   150.20368      0.98926693     67.287074      991152.07     -388537.69      14670.724     -373866.97     -372894.34    
    204000      204000   150.50765      0.98771401    -65.237011      992710.39     -388521.53      14700.414     -373821.12     -374765.6     
    205000      205000   150.26342      0.98782698    -52.10742       992596.86     -388616.62      14676.559     -373940.06     -374694.36    
    206000      206000   150.0088       0.9875351     -60.321022      992890.24     -388318.79      14651.69      -373667.1      -374540.56    
    207000      207000   150.23258      0.98867783     25.127783      991742.63     -388531.82      14673.547     -373858.28     -373494.84    
    208000      208000   149.47811      0.98825003    -23.772771      992171.95     -388529.54      14599.856     -373929.68     -374273.67    
    209000      209000   149.165        0.98833755    -20.328258      992084.09     -388654         14569.274     -374084.73     -374378.85    
    210000      210000   149.95222      0.98851656    -0.67725926     991904.44     -388508.01      14646.164     -373861.84     -373871.64    
    211000      211000   149.7259       0.98871485     18.400574      991705.5      -388518.2       14624.059     -373894.14     -373628.01    
    212000      212000   149.86195      0.98791131    -19.168972      992512.13     -388422.64      14637.347     -373785.29     -374062.76    
    213000      213000   149.7226       0.98895381     37.852174      991465.88     -388455.48      14623.737     -373831.74     -373284.42    
    214000      214000   150.22756      0.98890804     39.700179      991511.77     -388623.11      14673.057     -373950.05     -373375.98    
    215000      215000   149.98355      0.98892619     33.995899      991493.57     -388478.45      14649.223     -373829.23     -373337.65    
    216000      216000   149.66024      0.98801381    -44.570739      992409.16     -388601.04      14617.645     -373983.4      -374628.48    
    217000      217000   148.94195      0.98906811     42.278965      991351.3      -388595.2       14547.488     -374047.71     -373436.45    
    218000      218000   149.79098      0.98854266     9.9554272      991878.24     -388551.87      14630.415     -373921.46     -373777.45    
    219000      219000   150.87148      0.98867392     24.124847      991746.56     -388658.78      14735.95      -373922.83     -373573.9     
    220000      220000   150.55768      0.98897469     36.889653      991444.94     -388613.76      14705.3       -373908.46     -373375.07    
    221000      221000   149.18448      0.98916717     55.660832      991252.03     -388641.73      14571.177     -374070.56     -373265.9     
    222000      222000   150.12438      0.98841307    -12.312234      992008.29     -388522.5       14662.979     -373859.52     -374037.65    
    223000      223000   149.64086      0.98760472    -63.820738      992820.25     -388674.14      14615.753     -374058.38     -374982.46    
    224000      224000   150.60177      0.98842696     6.1819398      991994.35     -388659.98      14709.607     -373950.37     -373860.93    
    225000      225000   148.87408      0.98917474     50.892915      991244.43     -388543.99      14540.859     -374003.13     -373267.4     
    226000      226000   150.85773      0.98861565     10.227062      991805.02     -388663.29      14734.607     -373928.69     -373780.76    
    227000      227000   149.58058      0.98913901     48.643965      991280.25     -388620.57      14609.865     -374010.7      -373307.47    
    228000      228000   149.91506      0.98837084    -8.8956998      992050.68     -388488.31      14642.534     -373845.77     -373974.48    
    229000      229000   150.24983      0.98852934     8.6804662      991891.61     -388520.44      14675.232     -373845.21     -373719.64    
    230000      230000   151.0721       0.9886415      17.934356      991779.08     -388532.62      14755.545     -373777.07     -373517.67    
    231000      231000   149.484        0.9887445      20.568486      991675.76     -388571.64      14600.431     -373971.21     -373673.73    
    232000      232000   151.39007      0.98878813     19.275066      991632.01     -388720.9       14786.602     -373934.29     -373655.54    
    233000      233000   149.47244      0.98831455    -14.051761      992107.18     -388625.14      14599.303     -374025.84     -374229.15    
    234000      234000   149.55823      0.9876649     -73.896829      992759.75     -388560.61      14607.682     -373952.93     -375022.83    
    235000      235000   149.8041       0.98926801     60.539637      991150.99     -388577.19      14631.697     -373945.5      -373070.4     
    236000      236000   149.7654       0.98913023     53.173484      991289.04     -388546.44      14627.916     -373918.53     -373149.8     
    237000      237000   150.83776      0.98830385    -6.0335264      992117.92     -388576.99      14732.656     -373844.33     -373931.63    
    238000      238000   151.05951      0.98884827     50.577216      991571.7      -388626.64      14754.315     -373872.33     -373140.93    
    239000      239000   149.54171      0.98870259     22.004313      991717.81     -388589.95      14606.068     -373983.88     -373665.63    
    240000      240000   151.08559      0.98906249     46.832816      991356.94     -388556.01      14756.862     -373799.15     -373122.04    
    241000      241000   150.95192      0.98869845     32.350499      991721.96     -388605.09      14743.806     -373861.29     -373393.39    
    242000      242000   149.97659      0.98873175     34.395094      991688.55     -388498.9       14648.544     -373850.35     -373352.9     
    243000      243000   149.69948      0.98841249    -7.4391408      992008.88     -388483.79      14621.478     -373862.31     -373969.94    
    244000      244000   149.78452      0.98858        5.6309363      991840.78     -388505.56      14629.784     -373875.78     -373794.33    
    245000      245000   149.66983      0.98839861    -3.2221658      992022.8      -388523.13      14618.582     -373904.55     -373951.16    
    246000      246000   148.97794      0.98822249    -17.153107      992199.6      -388515.65      14551.003     -373964.65     -374212.86    
    247000      247000   149.65789      0.98866554     4.0329519      991754.96     -388650.87      14617.416     -374033.46     -373975.13    
    248000      248000   150.42425      0.98817395    -24.018009      992248.34     -388573.69      14692.268     -373881.42     -374228.99    
    249000      249000   150.59487      0.98810289    -21.885795      992319.69     -388552.05      14708.933     -373843.11     -374159.84    
    250000      250000   150.94636      0.98854203     7.3338032      991878.88     -388622.18      14743.263     -373878.92     -373772.83    
    251000      251000   150.97159      0.98817647    -22.636343      992245.81     -388606.19      14745.727     -373860.46     -374188.03    
    252000      252000   149.86426      0.98851756    -1.7298793      991903.43     -388624.69      14637.572     -373987.12     -374012.15    
    253000      253000   150.88579      0.98899805     52.430564      991421.53     -388555.71      14737.348     -373818.36     -373060.28    
    254000      254000   150.04891      0.98848902    -8.829182       991932.06     -388582.36      14655.607     -373926.75     -374054.48    
    255000      255000   150.40583      0.9889499      26.042507      991469.8      -388532.33      14690.469     -373841.86     -373465.3     
    256000      256000   149.66185      0.98868179     19.436964      991738.67     -388598.15      14617.802     -373980.35     -373699.22    
    257000      257000   150.42046      0.98803708    -28.211269      992385.79     -388373.49      14691.898     -373681.59     -374089.89    
    258000      258000   150.01437      0.98804806    -20.697572      992374.76     -388641.71      14652.234     -373989.47     -374289.02    
    259000      259000   151.08659      0.98741342    -78.123459      993012.59     -388571.73      14756.96      -373814.77     -374946.16    
    260000      260000   149.10337      0.98868863     22.089606      991731.8      -388594.69      14563.255     -374031.44     -373711.95    
    261000      261000   150.45324      0.98796414    -40.00129       992459.05     -388686.52      14695.099     -373991.42     -374570.4     
    262000      262000   151.14878      0.98862859     7.5323123      991792.03     -388533.95      14763.034     -373770.91     -373661.96    
    263000      263000   150.02777      0.98777618    -64.435609      992647.91     -388579.16      14653.543     -373925.61     -374858.43    
    264000      264000   148.67325      0.98825559    -28.026117      992166.37     -388655.84      14521.244     -374134.6      -374540.13    
    265000      265000   149.8736       0.98858733    -0.88426148     991833.43     -388745.67      14638.485     -374107.19     -374119.98    
    266000      266000   149.62706      0.98905258     40.821721      991366.87     -388624.03      14614.405     -374009.63     -373419.43    
    267000      267000   148.91212      0.98805458    -30.156769      992368.21     -388660.41      14544.574     -374115.84     -374552.29    
    268000      268000   149.7198       0.98804846    -27.760783      992374.36     -388722.83      14623.463     -374099.37     -374501.14    
    269000      269000   150.495        0.98823611    -14.000928      992185.93     -388599.53      14699.179     -373900.36     -374102.95    
    270000      270000   149.91636      0.98913518     51.931896      991284.08     -388598.45      14642.661     -373955.79     -373205.02    
    271000      271000   148.74525      0.98812127    -45.14093       992301.23     -388509.85      14528.276     -373981.57     -374634.84    
    272000      272000   149.33527      0.98878219     15.256104      991637.96     -388634.13      14585.905     -374048.22     -373827.59    
    273000      273000   149.99924      0.98939901     69.411326      991019.75     -388700.04      14650.756     -374049.28     -373046.08    
    274000      274000   149.60552      0.98900603     38.979368      991413.53     -388581.74      14612.301     -373969.44     -373405.85    
    275000      275000   149.61561      0.98835879    -25.459947      992062.77     -388508.14      14613.286     -373894.86     -374263.22    
    276000      276000   149.86521      0.98844872    -10.369545      991972.51     -388603.68      14637.665     -373966.01     -374116.03    
    277000      277000   149.73191      0.98840147    -21.481564      992019.93     -388652.37      14624.646     -374027.72     -374338.51    
    278000      278000   150.2624       0.98906814     39.066801      991351.27     -388639.26      14676.459     -373962.8      -373397.98    
    279000      279000   149.12871      0.98873923     24.571902      991681.05     -388613.02      14565.73      -374047.29     -373691.92    
    280000      280000   150.11231      0.98872226     10.831753      991698.08     -388579.13      14661.8       -373917.33     -373760.67    
    281000      281000   150.03163      0.98907673     32.977887      991342.66     -388643.02      14653.92      -373989.1      -373512.32    
    282000      282000   149.54628      0.98777415    -67.425832      992649.95     -388579.84      14606.514     -373973.33     -374949.44    
    283000      283000   149.88018      0.98776767    -63.579918      992656.46     -388653.81      14639.127     -374014.68     -374935.12    
    284000      284000   150.33406      0.98871272     15.891435      991707.64     -388641.87      14683.459     -373958.41     -373728.57    
    285000      285000   148.98461      0.98905462     30.006844      991364.82     -388492.33      14551.655     -373940.67     -373506.83    
    286000      286000   149.84693      0.98846272    -7.0824296      991958.46     -388653.02      14635.879     -374017.14     -374119.6     
    287000      287000   150.66951      0.98862549     12.855165      991795.14     -388634.12      14716.223     -373917.9      -373731.96    
    288000      288000   148.6063       0.98886915     18.553717      991550.76     -388563.78      14514.704     -374049.07     -373780.77    
    289000      289000   150.126        0.98836917    -17.14333       992052.35     -388512.58      14663.137     -373849.44     -374097.47    
    290000      290000   149.33525      0.98882426     15.530675      991595.78     -388676.16      14585.903     -374090.26     -373865.67    
    291000      291000   149.99726      0.9887936      28.000672      991626.52     -388704.38      14650.563     -374053.82     -373648.88    
    292000      292000   151.25394      0.98824986    -14.612656      992172.12     -388611.27      14773.305     -373837.97     -374049.41    
    293000      293000   150.23049      0.98956914     85.092783      990849.37     -388599.69      14673.343     -373926.35     -372696.71    
    294000      294000   149.16098      0.98851308    -10.849562      991907.93     -388627.07      14568.882     -374058.18     -374215.13    
    295000      295000   150.13814      0.98842637     5.4357262      991994.94     -388726.19      14664.323     -374061.87     -373983.23    
    296000      296000   149.49033      0.988461      -11.700737      991960.19     -388681.12      14601.05      -374080.07     -374249.34    
    297000      297000   150.25311      0.98834786    -12.99402       992073.74     -388699.07      14675.553     -374023.52     -374211.52    
    298000      298000   149.97606      0.98829086    -18.125591      992130.96     -388746.94      14648.493     -374098.44     -374360.71    
    299000      299000   150.40649      0.98981737     105.08973      990600.88     -388652.78      14690.534     -373962.25     -372444.03    
    300000      300000   150.87003      0.98914289     61.279865      991276.36     -388697.03      14735.808     -373961.22     -373075.31    
    301000      301000   150.04186      0.98888064     30.390728      991539.24     -388648.93      14654.919     -373994.01     -373554.54    
    302000      302000   149.6962       0.98831276    -22.951512      992108.97     -388679.51      14621.158     -374058.35     -374390.43    
    303000      303000   150.94915      0.98776504    -51.046791      992659.11     -388657.71      14743.536     -373914.17     -374653.17    
    304000      304000   148.6411       0.98852442     2.4223253      991896.55     -388663.16      14518.103     -374145.05     -374110.01    
    305000      305000   149.71371      0.98842039    -8.189243       992000.94     -388591.79      14622.868     -373968.92     -374087.4     
    306000      306000   151.20132      0.98828348    -6.1560391      992138.37     -388646.19      14768.166     -373878.02     -373967.1     
    307000      307000   150.0077       0.98828171    -11.859509      992140.14     -388616.64      14651.583     -373965.05     -374136.65    
    308000      308000   149.85111      0.98783977    -51.342997      992584.01     -388738.18      14636.288     -374101.89     -374845.12    
    309000      309000   150.30404      0.98824103    -18.241952      992180.99     -388643.83      14680.527     -373963.3      -374227.26    
    310000      310000   150.15386      0.98829846     4.452381       992123.33     -388537.85      14665.859     -373871.99     -373807.57    
    311000      311000   151.51783      0.98886093     26.733282      991559        -388760.6       14799.08      -373961.52     -373574.93    
    312000      312000   150.38253      0.9884641     -11.920055      991957.08     -388794.17      14688.193     -374105.97     -374278.42    
    313000      313000   150.128        0.98824744    -8.7562194      992174.55     -388602.51      14663.332     -373939.18     -374065.88    
    314000      314000   148.83351      0.98820294    -41.360655      992219.23     -388774.94      14536.897     -374238.04     -374836.55    
    315000      315000   150.82276      0.98949946     84.17394       990919.15     -388758.75      14731.191     -374027.56     -372811.12    
    316000      316000   149.65584      0.98985593     113.08926      990562.29     -388685.12      14617.215     -374067.9      -372434.18    
    317000      317000   148.47757      0.9880015     -56.950021      992421.53     -388669.38      14502.132     -374167.24     -374991.51    
    318000      318000   149.89637      0.98816641    -25.790002      992255.91     -388643.05      14640.709     -374002.35     -374375.55    
    319000      319000   149.84928      0.98842617     10.160545      991995.14     -388704.67      14636.109     -374068.57     -373921.57    
    320000      320000   149.9094       0.98851028    -1.7062675      991910.74     -388669.28      14641.982     -374027.3      -374051.99    
    321000      321000   150.05759      0.98939481     76.669584      991023.96     -388699.81      14656.456     -374043.36     -372935.25    
    322000      322000   149.88104      0.988896       34.601435      991523.84     -388834.31      14639.212     -374195.1      -373694.75    
    323000      323000   148.09955      0.98892031     23.681168      991499.46     -388649.75      14465.209     -374184.54     -373842.11    
    324000      324000   150.57543      0.988425       7.101977       991996.32     -388511.9       14707.034     -373804.86     -373702.12    
    325000      325000   149.3256       0.98867927     10.312433      991741.19     -388656.3       14584.96      -374071.34     -373922.19    
    326000      326000   149.28098      0.98834938    -8.7628977      992072.22     -388646.81      14580.602     -374066.21     -374192.99    
    327000      327000   149.31413      0.98837739    -14.836262      992044.1      -388615.34      14583.84      -374031.5      -374246.15    
    328000      328000   151.21631      0.98853826     7.4380418      991882.66     -388689.21      14769.63      -373919.58     -373811.98    
    329000      329000   150.32499      0.98873966     24.245565      991680.62     -388587.16      14682.573     -373904.58     -373553.93    
    330000      330000   150.00766      0.98830991    -14.307335      992111.83     -388706.68      14651.579     -374055.1      -374262.11    
    331000      331000   148.72747      0.98914309     52.824414      991276.15     -388700.44      14526.54      -374173.9      -373410.23    
    332000      332000   149.03637      0.98793899    -49.241005      992484.32     -388549.91      14556.711     -373993.2      -374705.93    
    333000      333000   149.3597       0.98883897     16.357274      991581.02     -388690.75      14588.29      -374102.46     -373865.91    
    334000      334000   150.92267      0.98940224     81.461152      991016.52     -388691.86      14740.95      -373950.91     -372773.56    
    335000      335000   148.72519      0.9892534      45.660475      991165.61     -388756.92      14526.317     -374230.6      -373570.57    
    336000      336000   150.29942      0.98867436     14.171475      991746.11     -388694.16      14680.076     -374014.09     -373809.12    
    337000      337000   150.52863      0.98821134    -33.793952      992210.79     -388643.63      14702.463     -373941.17     -374430.18    
    338000      338000   148.93685      0.98919681     44.588304      991222.32     -388494.22      14546.99      -373947.23     -373302.66    
    339000      339000   149.54617      0.98855434    -1.530337       991866.53     -388651.35      14606.504     -374044.84     -374066.98    
    340000      340000   151.32752      0.98832881    -5.5338835      992092.87     -388692.43      14780.493     -373911.94     -373992.01    
    341000      341000   149.78684      0.98905945     53.071877      991359.98     -388573.04      14630.011     -373943.03     -373175.72    
    342000      342000   150.72987      0.98833467    -13.433494      992086.98     -388681.16      14722.118     -373959.05     -374153.41    
    343000      343000   149.59979      0.98876572     8.6312103      991654.49     -388790.19      14611.741     -374178.45     -374053.62    
    344000      344000   150.5149       0.98933952     74.571712      991079.35     -388663.42      14701.122     -373962.3      -372884.45    
    345000      345000   149.85046      0.98896548     31.447857      991454.18     -388658.83      14636.225     -374022.6      -373567.89    
    346000      346000   150.08836      0.98810455    -36.147391      992318.02     -388707.68      14659.461     -374048.22     -374571.34    
    347000      347000   150.95232      0.98849363    -1.0766436      991927.45     -388665.28      14743.846     -373921.43     -373937       
    348000      348000   149.73638      0.9893332      58.701473      991085.68     -388658.66      14625.082     -374033.58     -373185.11    
    349000      349000   150.50992      0.98945421     74.751892      990964.47     -388701.68      14700.635     -374001.04     -372920.71    
    350000      350000   149.02973      0.98820863    -32.340733      992213.52     -388633.9       14556.062     -374077.84     -374545.82    
    351000      351000   149.03483      0.98788482    -62.522982      992538.75     -388728.93      14556.561     -374172.37     -375077.4     
    352000      352000   149.9028       0.98810027    -37.201744      992322.33     -388624.46      14641.336     -373983.12     -374521.51    
    353000      353000   151.01101      0.98791388    -47.338809      992509.55     -388745.87      14749.578     -373996.29     -374681.5     
    354000      354000   149.68703      0.98838649    -7.69754        992034.96     -388755.78      14620.262     -374135.52     -374246.89    
    355000      355000   150.4119       0.988114      -33.214689      992308.54     -388760.1       14691.062     -374069.04     -374549.72    
    356000      356000   150.05961      0.98875979     27.451435      991660.43     -388752.87      14656.653     -374096.22     -373699.21    
    357000      357000   150.4566       0.98876745     20.390577      991652.75     -388718.32      14695.428     -374022.89     -373728       
    358000      358000   149.28842      0.98810963    -28.833138      992312.93     -388857.47      14581.329     -374276.14     -374693.41    
    359000      359000   150.62936      0.98909661     59.93165       991322.74     -388673.87      14712.301     -373961.57     -373095.11    
    360000      360000   149.0474       0.98862179     7.2242492      991798.86     -388760.8       14557.788     -374203.01     -374098.52    
    361000      361000   149.15372      0.98906765     54.309774      991351.77     -388708.99      14568.172     -374140.82     -373355.61    
    362000      362000   148.85832      0.98870664     17.144391      991713.74     -388749.48      14539.32      -374210.16     -373962.2     
    363000      363000   149.37303      0.98892764     31.374837      991492.12     -388811.78      14589.593     -374222.19     -373768.51    
    364000      364000   148.6781       0.98814025    -31.492682      992282.17     -388623.36      14521.718     -374101.64     -374557.39    
    365000      365000   149.18537      0.9885931      4.9839509      991827.64     -388682.02      14571.264     -374110.76     -374038.67    
    366000      366000   148.68705      0.98849375    -0.21002535     991927.32     -388796.14      14522.592     -374273.55     -374276.59    
    367000      367000   150.8105       0.98898082     57.100405      991438.8      -388706.02      14729.993     -373976.02     -373150.4     
    368000      368000   149.52546      0.98809127    -30.062491      992331.37     -388796.31      14604.481     -374191.83     -374626.9     
    369000      369000   150.33341      0.98917072     60.189268      991248.47     -388659.16      14683.395     -373975.77     -373105.65    
    370000      370000   149.94778      0.9887723      20.117119      991647.89     -388659.07      14645.73      -374013.34     -373722.41    
    371000      371000   149.68263      0.98877435     19.653867      991645.83     -388671.25      14619.833     -374051.42     -373767.18    
    372000      372000   148.906        0.98886007     26.294588      991559.87     -388818.57      14543.977     -374274.59     -373894.35    
    373000      373000   149.1527       0.98888145     37.367582      991538.43     -388770.92      14568.072     -374202.85     -373662.49    
    374000      374000   150.47922      0.9880436     -27.193382      992379.25     -388838.05      14697.637     -374140.42     -374533.98    
    375000      375000   149.14633      0.98879884     23.488584      991621.27     -388810.01      14567.451     -374242.56     -373902.87    
    376000      376000   149.64666      0.98923088     74.112927      991188.18     -388843.16      14616.319     -374226.84     -373155.5     
    377000      377000   151.00465      0.98904562     50.520708      991373.85     -388799.11      14748.957     -374050.15     -373319.71    
    378000      378000   150.18873      0.98779025    -56.047285      992633.77     -388734.65      14669.264     -374065.39     -374876.76    
    379000      379000   150.25559      0.98919436     49.487632      991224.78     -388777.99      14675.795     -374102.2      -373386.8     
    380000      380000   150.45581      0.98890144     33.815438      991518.38     -388746.06      14695.351     -374050.71     -373561.72    
    381000      381000   150.44255      0.9883323     -7.885465       992089.36     -388775.67      14694.055     -374081.61     -374195.7     
    382000      382000   148.88267      0.98785876    -61.133593      992564.93     -388653.82      14541.698     -374112.13     -374997.07    
    383000      383000   150.28758      0.98856949     6.8494794      991851.33     -388870.39      14678.919     -374191.47     -374092.39    
    384000      384000   150.65479      0.98902525     46.476415      991394.26     -388789.35      14714.786     -374074.56     -373402.58    
    385000      385000   148.56176      0.98804989    -36.455844      992372.92     -388676.42      14510.354     -374166.06     -374693.68    
    386000      386000   150.05821      0.98798029    -35.685502      992442.84     -388715.07      14656.516     -374058.56     -374575.06    
    387000      387000   149.97595      0.98791921    -39.909421      992504.2      -388716.19      14648.482     -374067.71     -374645.39    
    388000      388000   149.20559      0.98769652    -61.744837      992727.97     -388726.37      14573.239     -374153.13     -375047.07    
    389000      389000   151.24548      0.98829911    -8.9213836      992122.67     -388713.8       14772.479     -373941.32     -374070.41    
    390000      390000   149.19312      0.98799103    -41.824483      992432.05     -388730.96      14572.02      -374158.94     -374764.29    
    391000      391000   150.06033      0.98796799    -35.699         992455.19     -388628.05      14656.723     -373971.32     -374488.03    
    392000      392000   150.07187      0.98822556    -26.987097      992196.52     -388855.26      14657.851     -374197.41     -374587.92    
    393000      393000   149.56668      0.98856507     16.332447      991855.76     -388801.14      14608.507     -374192.63     -373956.38    
    394000      394000   148.92443      0.9878334     -52.609589      992590.41     -388584.35      14545.777     -374038.57     -374800.14    
    395000      395000   150.88087      0.98820982    -16.551738      992212.32     -388659.21      14736.867     -373922.35     -374161.86    
    396000      396000   149.83862      0.98776714    -59.074272      992656.99     -388709.21      14635.068     -374074.14     -374929.35    
    397000      397000   150.03275      0.98866886     17.679072      991751.64     -388899.76      14654.03      -374245.73     -373990.02    
    398000      398000   151.16231      0.98803324    -25.825822      992389.65     -388743.58      14764.356     -373979.22     -374353       
    399000      399000   148.99351      0.98874972     14.057691      991670.53     -388849.95      14552.524     -374297.42     -374094.11    
    400000      400000   148.95509      0.98831049    -10.398916      992111.26     -388744.05      14548.772     -374195.28     -374345.74    
    401000      401000   149.33547      0.98889112     33.514         991528.73     -388689.56      14585.924     -374103.63     -373619.01    
    402000      402000   150.62604      0.98817704    -22.177115      992245.23     -388768.08      14711.978     -374056.1      -374377.02    
    403000      403000   150.16709      0.98836897     1.0741546      992052.56     -388667.79      14667.15      -374000.64     -373985.1     
    404000      404000   150.39476      0.98861072     0.85608966     991809.96     -388764.52      14689.387     -374075.14     -374062.75    
    405000      405000   150.71119      0.98744077    -100.1893       992985.09     -388851.49      14720.294     -374131.19     -375582.1     
    406000      406000   148.89585      0.98802202    -39.883271      992400.92     -388754.52      14542.986     -374211.53     -374788.77    
    407000      407000   150.70408      0.98852668     8.0060445      991894.28     -388826.39      14719.599     -374106.79     -373990.98    
    408000      408000   150.66265      0.9887133      23.329844      991707.06     -388739.97      14715.553     -374024.42     -373687       
    409000      409000   150.40277      0.98882837     14.054656      991591.66     -388908.94      14690.17      -374218.78     -374015.53    
    410000      410000   149.23026      0.98872832     6.3988029      991692        -388769.07      14575.648     -374193.43     -374100.88    
    411000      411000   149.78914      0.98871325     14.382461      991707.11     -388671.25      14630.235     -374041.01     -373833       
    412000      412000   149.70498      0.98842868    -4.9931608      991992.62     -388840.43      14622.016     -374218.42     -374290.65    
    413000      413000   150.35897      0.98784435    -52.208203      992579.41     -388817.55      14685.892     -374131.66     -374887.41    
    414000      414000   151.28351      0.98874445     31.009518      991675.81     -388776.12      14776.194     -373999.93     -373551.45    
    415000      415000   149.02596      0.98805603    -52.723726      992366.76     -388797.35      14555.693     -374241.66     -375004.71    
    416000      416000   148.87201      0.98867215     9.1879522      991748.34     -388716.89      14540.657     -374176.23     -374043.34    
    417000      417000   149.83164      0.98868291     16.067572      991737.54     -388850.7       14634.386     -374216.31     -373983.92    
    418000      418000   148.69964      0.98823507    -34.007531      992186.97     -388828.22      14523.821     -374304.4      -374796.49    
    419000      419000   150.3625       0.98817763    -29.813686      992244.65     -388747         14686.237     -374060.77     -374492.2     
    420000      420000   150.47132      0.9890252      49.339412      991394.31     -388768.39      14696.865     -374071.52     -373358.15    
    421000      421000   150.5604       0.98805936    -39.144384      992363.41     -388781.12      14705.566     -374075.55     -374642.08    
    422000      422000   149.63279      0.98848397    -11.141355      991937.13     -388817.35      14614.964     -374202.39     -374363.56    
    423000      423000   150.00668      0.9881294     -35.814918      992293.07     -388834.17      14651.483     -374182.68     -374700.98    
    424000      424000   150.7392       0.9888246      26.131461      991595.44     -388838.84      14723.03      -374115.81     -373737.91    
    425000      425000   149.72595      0.98851073     3.8398839      991910.29     -388809.18      14624.063     -374185.11     -374129.57    
    426000      426000   150.67916      0.98857417     12.718353      991846.63     -388694.73      14717.165     -373977.57     -373793.59    
    427000      427000   150.15804      0.98907084     55.213963      991348.56     -388887.01      14666.267     -374220.75     -373422.48    
    428000      428000   149.78282      0.98846309    -0.4530127      991958.1      -388835.97      14629.618     -374206.35     -374212.9     
    429000      429000   150.32541      0.9887065      23.207428      991713.88     -388749.2       14682.614     -374066.58     -373730.93    
    430000      430000   151.29384      0.98868011     24.974759      991740.35     -388815.62      14777.203     -374038.41     -373677.19    
    431000      431000   148.43899      0.9881482     -38.230681      992274.19     -388759.73      14498.363     -374261.37     -374814.62    
    432000      432000   149.92625      0.98897244     36.412637      991447.2      -388774.84      14643.627     -374131.21     -373604.71    
    433000      433000   150.41238      0.98898095     49.510128      991438.67     -388681.54      14691.108     -373990.43     -373274.56    
    434000      434000   149.57414      0.98862242     16.407961      991798.22     -388793.93      14609.236     -374184.69     -373947.36    
    435000      435000   149.73307      0.98889101     19.09173       991528.84     -388833.74      14624.758     -374208.98     -373932.91    
    436000      436000   149.3836       0.98975536     85.350442      990662.95     -388786.88      14590.626     -374196.26     -372963.13    
    437000      437000   150.68396      0.98840989     5.6214166      992011.48     -388707.77      14717.634     -373990.14     -373908.81    
    438000      438000   149.14818      0.98824956    -24.376228      992172.42     -388854.91      14567.632     -374287.27     -374639.99    
    439000      439000   149.23062      0.98909705     41.064012      991322.29     -388736.89      14575.684     -374161.2      -373567.52    
    440000      440000   148.82228      0.98859015    -1.3463937      991830.6      -388774.51      14535.799     -374238.71     -374258.18    
    441000      441000   150.28845      0.9880319     -44.377268      992391        -388862.45      14679.004     -374183.45     -374825.72    
    442000      442000   149.51335      0.98944704     78.285382      990971.64     -388758.72      14603.298     -374155.43     -373024.02    
    443000      443000   150.20216      0.98859086     4.5635084      991829.89     -388727.57      14670.576     -374056.99     -373990.98    
    444000      444000   149.04035      0.98787902    -61.54115       992544.57     -388709.49      14557.099     -374152.39     -375043.21    
    445000      445000   149.99561      0.98880125     33.263121      991618.85     -388976.66      14650.401     -374326.26     -373845.22    
    446000      446000   151.16104      0.98871104     22.390205      991709.32     -388759.87      14764.232     -373995.64     -373671.8     
    447000      447000   150.65264      0.98863033     16.570161      991790.29     -388674.91      14714.575     -373960.33     -373720.66    
    448000      448000   150.01658      0.98920794     63.902897      991211.17     -388826.2       14652.45      -374173.75     -373249.98    
    449000      449000   150.30182      0.98840272    -7.4572967      992018.68     -388882.79      14680.31      -374202.48     -374310.37    
    450000      450000   149.83645      0.98796031    -44.68486       992462.91     -388733.37      14634.856     -374098.52     -374745.29    
    451000      451000   149.45747      0.98927188     68.163849      991147.11     -388860.99      14597.84      -374263.15     -373277.85    
    452000      452000   150.93262      0.98865819     8.5629517      991762.34     -388798.83      14741.922     -374056.91     -373933.05    
    453000      453000   150.7285       0.98833169    -12.149486      992089.97     -388732.02      14721.985     -374010.03     -374185.82    
    454000      454000   148.9201       0.98846936    -18.660428      991951.8      -388704.66      14545.355     -374159.31     -374429.26    
    455000      455000   151.19195      0.98843615     2.3996316      991985.12     -388729.03      14767.251     -373961.78     -373927.06    
    456000      456000   149.12883      0.98899678     38.588153      991422.8      -388749.39      14565.742     -374183.65     -373625.71    
    457000      457000   149.16094      0.9882073     -26.907933      992214.85     -388819.21      14568.878     -374250.33     -374639.7     
    458000      458000   150.2273       0.98827866    -10.821138      992143.21     -388712.54      14673.031     -374039.51     -374196.08    
    459000      459000   149.26819      0.98834214    -15.318947      992079.48     -388830.81      14579.353     -374251.46     -374473.1     
    460000      460000   150.19983      0.98871772     25.188853      991702.63     -388697.45      14670.349     -374027.1      -373662.79    
    461000      461000   149.74771      0.9885175      0.43835617     991903.49     -388646.31      14626.188     -374020.12     -374013.78    
    462000      462000   149.83497      0.988517       5.9667894      991903.99     -388626.24      14634.712     -373991.52     -373905.21    
    463000      463000   149.20409      0.98875764     22.357452      991662.59     -388895.18      14573.092     -374322.09     -373998.75    
    464000      464000   150.09871      0.98889167     35.831183      991528.18     -389034.28      14660.471     -374373.8      -373855.67    
    465000      465000   150.52739      0.98832194    -8.7033658      992099.76     -388657.87      14702.342     -373955.52     -374081.45    
    466000      466000   150.01719      0.98842        2.6557431      992001.33     -388864         14652.509     -374211.49     -374173.06    
    467000      467000   150.01311      0.9877157     -57.081651      992708.69     -388796.15      14652.111     -374144.04     -374970.45    
    468000      468000   149.73267      0.9893617      77.593156      991057.12     -388781.31      14624.72      -374156.59     -373035.09    
    469000      469000   149.93695      0.98775445    -59.98162       992669.75     -388805.02      14644.672     -374160.35     -375028.71    
    470000      470000   149.07082      0.98836237    -21.287301      992059.18     -388868.71      14560.075     -374308.63     -374616.62    
    471000      471000   149.16932      0.98815299    -43.456911      992269.39     -388937.97      14569.696     -374368.27     -374997.15    
    472000      472000   150.48339      0.98851932     6.6498766      991901.66     -388767.9       14698.044     -374069.86     -373973.66    
    473000      473000   149.99544      0.9884188      1.4836857      992002.54     -388876.04      14650.385     -374225.65     -374204.19    
    474000      474000   149.83548      0.98899884     55.633081      991420.74     -388831.17      14634.761     -374196.41     -373392.02    
    475000      475000   149.1348       0.98723034    -97.137828      993196.74     -388757.03      14566.325     -374190.7      -375597.72    
    476000      476000   149.67558      0.98749992    -77.615461      992925.61     -388764.66      14619.144     -374145.51     -375269.45    
    477000      477000   149.86394      0.98818608    -20.694046      992236.16     -388722.72      14637.542     -374085.18     -374384.64    
    478000      478000   150.16032      0.98816056    -16.782715      992261.78     -388818.39      14666.489     -374151.9      -374394.77    
    479000      479000   149.58288      0.98819672    -17.819838      992225.48     -388832.95      14610.089     -374222.86     -374480.73    
    480000      480000   150.50987      0.98861928     19.412604      991801.37     -388893.07      14700.631     -374192.44     -373911.65    
    481000      481000   149.51373      0.98821838    -18.989551      992203.73     -388783.36      14603.335     -374180.03     -374454.81    
    482000      482000   150.13564      0.98751468    -68.835789      992910.77     -388664.53      14664.079     -374000.45     -374997.23    
    483000      483000   149.52201      0.98836906    -10.259774      992052.46     -388785.34      14604.144     -374181.19     -374329.63    
    484000      484000   148.99125      0.98854263     1.0195852      991878.27     -388817.58      14552.304     -374265.28     -374250.53    
    485000      485000   150.32531      0.98867208     18.942304      991748.41     -388770.64      14682.604     -374088.04     -373814.06    
    486000      486000   150.281        0.98833015    -18.692248      992091.51     -388810.35      14678.276     -374132.07     -374402.53    
    487000      487000   149.86542      0.98876127     28.486618      991658.95     -388748.44      14637.686     -374110.75     -373698.77    
    488000      488000   150.75348      0.98932112     75.473743      991097.77     -388798.87      14724.425     -374074.45     -372983.54    
    489000      489000   150.16017      0.98791977    -42.99309       992503.63     -388752.81      14666.475     -374086.34     -374708.65    
    490000      490000   149.24596      0.98797812    -34.958325      992445.02     -388746.94      14577.182     -374169.76     -374675.74    
    491000      491000   150.11503      0.98965018     101.27471      990768.23     -388731.16      14662.066     -374069.09     -372605.74    
    492000      492000   149.1121       0.98893314     33.645045      991486.6      -388926.81      14564.107     -374362.71     -373876.2     
    493000      493000   150.21549      0.98845556    -8.8297757      991965.65     -388805.61      14671.878     -374133.74     -374261.48    
    494000      494000   149.39846      0.98835443    -10.825813      992067.15     -388739.06      14592.076     -374146.98     -374303.62    
    495000      495000   149.58626      0.98852705     1.4823109      991893.9      -388843.61      14610.42      -374233.19     -374211.75    
    496000      496000   150.6172       0.98799228    -38.019504      992430.79     -388701.4       14711.114     -373990.28     -374540.56    
    497000      497000   150.7847       0.98761125    -74.214614      992813.68     -388721.16      14727.474     -373993.69     -375068.26    
    498000      498000   149.88943      0.98788647    -44.572099      992537.09     -388778.25      14640.031     -374138.22     -374783.41    
    499000      499000   151.05337      0.98867532     24.395098      991745.15     -388815.7       14753.716     -374061.99     -373709.15    
    500000      500000   149.89783      0.98823304    -18.872189      992189.01     -388803.75      14640.851     -374162.9      -374435.98    
Loop time of 1533.02 on 32 procs for 500000 steps with 32768 atoms

Performance: 281.797 ns/day, 0.085 hours/ns, 326.154 timesteps/s, 10.687 Matom-step/s
100.0% CPU use with 32 MPI tasks x no OpenMP threads

MPI task timing breakdown:
Section |  min time  |  avg time  |  max time  |%varavg| %total
---------------------------------------------------------------
Pair    | 1268.6     | 1294.9     | 1346.2     |  42.3 | 84.47
Neigh   | 7.9985     | 8.1125     | 8.2227     |   1.5 |  0.53
Comm    | 144.77     | 195.39     | 219.93     | 107.5 | 12.75
Output  | 0.045866   | 0.05429    | 0.062779   |   2.1 |  0.00
Modify  | 27.494     | 29.648     | 32.2       |  24.8 |  1.93
Other   |            | 4.89       |            |       |  0.32

Nlocal:           1024 ave        1047 max        1006 min
Histogram: 4 1 2 6 7 4 4 1 1 2
Nghost:        2911.25 ave        2946 max        2870 min
Histogram: 1 0 3 6 3 5 6 4 2 2
Neighs:              0 ave           0 max           0 min
Histogram: 32 0 0 0 0 0 0 0 0 0
FullNghs:      94686.1 ave       96867 max       92809 min
Histogram: 4 0 2 5 9 5 2 2 1 2

Total # of neighbors = 3029956
Ave neighs/atom = 92.466919
Neighbor list builds = 2813
Dangerous builds = 0

write_restart	restart1.mw
System init for write_restart ...

clear
read_restart	restart1.mw
Reading restart file ...
  restart file = 2 Aug 2023, LAMMPS = 2 Aug 2023
  restoring atom style atomic from restart
  orthogonal box = (0.9305236 0.9305236 0.9305236) to (100.66948 100.66948 100.66948)
  2 by 4 by 4 MPI processor grid
  pair style sw stores no restart info
  32768 atoms
  read_restart CPU = 0.010 seconds

pair_style      sw
pair_coeff      * * mW.sw mW

fix             1 all npt temp 150.0 273.0 100 iso 1.0 1.0 500
Resetting global fix info from restart file:
  fix style: npt, fix ID: 1
dump		1 all custom 1000 dump.mw2.lammpstrj id mass x y z fx fy fz

thermo_style    custom step elapsed temp density press vol pe ke etotal enthalpy
thermo          1000
run             1230000
All restart file global fix info was re-assigned
Neighbor list info ...
  update: every = 1 steps, delay = 0 steps, check = yes
  max neighbors/atom: 2000, page size: 100000
  master list distance cutoff = 6.3065
  ghost atom cutoff = 6.3065
  binsize = 3.15325, bins = 32 32 32
  1 neighbor lists, perpetual/occasional/extra = 1 0 0
  (1) pair sw, perpetual
      attributes: full, newton on
      pair build: full/bin/atomonly
      stencil: full/bin/3d
      bin: standard
Per MPI rank memory allocation (min/avg/max) = 3.279 | 3.289 | 3.295 Mbytes
   Step       Elapsed        Temp         Density         Press          Volume         PotEng         KinEng         TotEng        Enthalpy   
    500000           0   149.89783      0.98823304    -18.872189      992189.01     -388803.75      14640.851     -374162.9      -374435.98    
    501000        1000   150.692        0.98887825     42.560697      991541.64     -388862.83      14718.42      -374144.41     -373528.96    
    502000        2000   148.81804      0.98803272    -39.999381      992390.17     -388732.16      14535.386     -374196.77     -374775.69    
    503000        3000   149.12105      0.98830456    -10.749625      992117.21     -388739.4       14564.981     -374174.41     -374329.95    
    504000        4000   151.82405      0.98806317    -31.088054      992359.59     -388730.76      14828.99      -373901.77     -374351.69    
    505000        5000   150.30206      0.9883329     -26.618582      992088.76     -388811.71      14680.333     -374131.37     -374516.51    
    506000        6000   150.71779      0.98878411     31.545643      991636.04     -388723.03      14720.939     -374002.09     -373545.88    
    507000        7000   150.25148      0.98904483     47.267565      991374.64     -388761.05      14675.393     -374085.65     -373402.25    
    508000        8000   150.62587      0.98783099    -37.099597      992592.83     -388635.13      14711.961     -373923.17     -374460.22    
    509000        9000   151.72254      0.9881107     -18.135437      992311.85     -388770.74      14819.074     -373951.66     -374214.11    
    510000       10000   150.01574      0.98857243     15.581269      991848.38     -388683.59      14652.368     -374031.22     -373805.83    
    511000       11000   151.54863      0.98766555    -61.817172      992759.1      -388619.47      14802.089     -373817.38     -374712.39    
    512000       12000   151.01418      0.98825893    -1.833801       992163.01     -388562.31      14749.887     -373812.42     -373838.96    
[...]
   3832000      372000   150.47138      0.9892299      13.381984      991189.17     -389968.91      14696.871     -375272.04     -375078.6     
   3833000      373000   149.55395      0.98907742    -0.33637347     991341.97     -389812.67      14607.264     -375205.41     -375210.27    
   3834000      374000   149.09654      0.98855846    -52.610945      991862.39     -389889.68      14562.587     -375327.09     -376088.13    
   3835000      375000   150.15458      0.9887427     -28.724988      991677.58     -390023.15      14665.929     -375357.22     -375772.66    
   3836000      376000   148.71536      0.99023998     84.007779      990178.11     -389775.57      14525.357     -375250.21     -374037.08    
   3837000      377000   150.81404      0.98905187    -6.1200787      991367.58     -389829.65      14730.34      -375099.31     -375187.8     
   3838000      378000   147.97163      0.98814368    -93.153555      992278.74     -389861.74      14452.715     -375409.02     -376757.08    
   3839000      379000   150.69642      0.98923344     15.044445      991185.62     -389756.6       14718.852     -375037.75     -374820.27    
   3840000      380000   150.38683      0.98920998     9.8687891      991209.12     -389849.53      14688.613     -375160.92     -375018.26    
   3841000      381000   150.13954      0.98952169     33.397478      990896.89     -389879.9       14664.46      -375215.44     -374732.8     
   3842000      382000   150.69569      0.98979624     67.208197      990622.03     -389811.71      14718.78      -375092.93     -374121.96    
   3843000      383000   151.27512      0.98907567    -0.74317081     991343.73     -389845         14775.374     -375069.63     -375080.37    
   3844000      384000   149.04794      0.98882357    -23.216808      991596.46     -389778.86      14557.84      -375221.02     -375556.77    
   3845000      385000   148.97531      0.98911655     3.3950185      991302.75     -389763.05      14550.746     -375212.31     -375163.23    
   3846000      386000   150.2008       0.98925747     11.82969       991161.55     -389871.75      14670.443     -375201.31     -375030.31    
   3847000      387000   151.21234      0.98907175    -4.4173465      991347.66     -389826.53      14769.243     -375057.29     -375121.15    
   3848000      388000   149.92644      0.98843409    -56.714538      991987.19     -389893.92      14643.646     -375250.28     -376070.77    
   3849000      389000   150.87502      0.98863881    -24.9416        991781.78     -389786.72      14736.295     -375050.43     -375411.19    
   3850000      390000   149.83952      0.98940804     26.609915      991010.7      -389891.76      14635.156     -375256.61     -374872.02    
   3851000      391000   150.01017      0.98879553    -24.317606      991624.59     -389781.43      14651.823     -375129.6      -375481.28    
   3852000      392000   150.51855      0.98872013    -25.058925      991700.21     -389724.25      14701.478     -375022.77     -375385.2     
   3853000      393000   149.63552      0.98954947     32.634447      990869.06     -389891.31      14615.231     -375276.08     -374804.49    
   3854000      394000   150.51629      0.9888679     -20.437242      991552.02     -389887.05      14701.257     -375185.79     -375481.33    
   3855000      395000   150.22107      0.98845377    -47.941133      991967.44     -389700.67      14672.422     -375028.25     -375721.8     
   3856000      396000   149.97357      0.98952375     31.105745      990894.82     -389892.79      14648.249     -375244.54     -374795.02    
   3857000      397000   149.00777      0.98886327    -13.962913      991556.66     -389863.15      14553.917     -375309.23     -375511.14    
   3858000      398000   150.78806      0.98951285     43.760807      990905.73     -389895.76      14727.802     -375167.95     -374535.55    
   3859000      399000   150.04582      0.9880962     -78.136859      992326.41     -389807.93      14655.306     -375152.62     -376283.42    
   3860000      400000   150.42825      0.98902921    -4.6169466      991390.29     -389825.69      14692.659     -375133.03     -375199.78    
   3861000      401000   149.56492      0.98897395    -12.572184      991445.69     -389832.55      14608.335     -375224.21     -375406       
   3862000      402000   148.36198      0.9891962      7.7839427      991222.93     -389805.95      14490.842     -375315.11     -375202.58    
   3863000      403000   150.90357      0.98960835     45.037854      990810.11     -389773.49      14739.084     -375034.41     -374383.62    
   3864000      404000   149.53184      0.98901013    -14.240559      991409.42     -389793.85      14605.104     -375188.75     -375394.65    
   3865000      405000   150.36567      0.98929794     14.200765      991120.99     -389869.13      14686.546     -375182.58     -374977.32    
   3866000      406000   149.83013      0.98959881     38.063592      990819.66     -389879.28      14634.239     -375245.04     -374695.02    
   3867000      407000   149.40237      0.98834251    -65.772183      992079.11     -389811.25      14592.458     -375218.79     -376170.41    
   3868000      408000   149.97346      0.98974601     52.202483      990672.3      -389802.96      14648.238     -375154.73     -374400.51    
   3869000      409000   149.16211      0.9894435      24.254849      990975.19     -389814.93      14568.992     -375245.94     -374895.4     
   3870000      410000   150.29535      0.98974639     55.200722      990671.93     -389843.13      14679.678     -375163.45     -374365.91    
   3871000      411000   151.28352      0.98983435     64.119794      990583.88     -389741.13      14776.195     -374964.93     -374038.62    
   3872000      412000   149.61263      0.98903915    -4.6081235      991380.34     -389853.63      14612.995     -375240.63     -375307.26    
   3873000      413000   149.99039      0.98839272    -59.826655      992028.71     -389866.99      14649.892     -375217.1      -376082.65    
   3874000      414000   150.34475      0.98957296     36.776222      990845.55     -389960.76      14684.503     -375276.26     -374744.83    
   3875000      415000   149.61305      0.98962142     44.125917      990797.02     -389825.33      14613.036     -375212.3      -374574.69    
   3876000      416000   149.90688      0.98917726     6.5511271      991241.92     -389839.17      14641.735     -375197.44     -375102.73    
   3877000      417000   151.15833      0.98838126    -49.843743      992040.21     -389723.69      14763.967     -374959.73     -375680.86    
   3878000      418000   149.52456      0.98952037     38.252554      990898.21     -389930.97      14604.393     -375326.58     -374773.79    
   3879000      419000   149.96498      0.98918912     4.2128245      991230.03     -389783.69      14647.41      -375136.28     -375075.38    
   3880000      420000   150.79402      0.98889703    -9.4823033      991522.81     -389804.73      14728.384     -375076.35     -375213.46    
   3881000      421000   149.77575      0.98993738     57.552151      990480.79     -389752.89      14628.928     -375123.96     -374292.62    
   3882000      422000   150.19284      0.98898012    -10.482238      991439.5      -389915.35      14669.666     -375245.69     -375397.25    
   3883000      423000   149.84868      0.98882764    -21.506728      991592.38     -389856.29      14636.05      -375220.24     -375531.26    
   3884000      424000   150.25582      0.98875226    -27.555703      991667.99     -389803.56      14675.817     -375127.74     -375526.26    
   3885000      425000   150.26424      0.98907499    -2.6702223      991344.41     -389988.13      14676.64      -375311.49     -375350.1     
   3886000      426000   151.64865      0.98896453    -0.91334299     991455.13     -389752.02      14811.858     -374940.16     -374953.36    
   3887000      427000   149.79219      0.98895969    -17.30581       991459.98     -389824.49      14630.533     -375193.95     -375444.19    
   3888000      428000   150.07653      0.98922035     11.38734       991198.73     -389897.45      14658.306     -375239.15     -375074.53    
   3889000      429000   149.39164      0.98917054     2.7899574      991248.65     -389886.91      14591.41      -375295.5      -375255.16    
   3890000      430000   151.04576      0.98931855     14.474019      991100.35     -389857.79      14752.972     -375104.82     -374895.61    
   3891000      431000   150.39279      0.98911989     1.8652397      991299.41     -389898.16      14689.195     -375208.96     -375182       
   3892000      432000   151.12581      0.98905336    -0.92873238     991366.09     -389846.41      14760.791     -375085.62     -375099.05    
   3893000      433000   150.07607      0.98854729    -40.031151      991873.6      -389882.26      14658.26      -375223.99     -375803.06    
   3894000      434000   150.10733      0.98888781    -18.502066      991532.05     -389854.03      14661.314     -375192.72     -375460.27    
   3895000      435000   150.06834      0.98850409    -48.728619      991916.94     -389927.94      14657.505     -375270.44     -375975.35    
   3896000      436000   149.99302      0.98895362    -4.0925212      991466.07     -389831.21      14650.148     -375181.07     -375240.24    
   3897000      437000   150.73763      0.98889852    -5.6952076      991521.31     -389883.8       14722.877     -375160.93     -375243.28    
   3898000      438000   150.22588      0.988686      -24.452803      991734.44     -389804.21      14672.892     -375131.31     -375484.98    
   3899000      439000   150.42296      0.98913146     5.5937826      991287.81     -389883.05      14692.142     -375190.9      -375110.04    
   3900000      440000   149.89164      0.98938605     21.707629      991032.73     -389929.82      14640.247     -375289.58     -374975.83    
   3901000      441000   151.09584      0.98945436     32.628965      990964.31     -389887.76      14757.864     -375129.9      -374658.34    
   3902000      442000   150.61707      0.98864078    -39.139921      991779.8      -389887.89      14711.101     -375176.79     -375742.91    
   3903000      443000   150.36015      0.98930358     14.362809      991115.34     -389916.64      14686.007     -375230.64     -375023.03    
   3904000      444000   150.75552      0.98843785    -55.292786      991983.42     -389879.83      14724.624     -375155.2      -375955.13    
   3905000      445000   150.14389      0.988632      -33.28058       991788.62     -389797.97      14664.884     -375133.08     -375614.46    
   3906000      446000   150.92455      0.98954383     37.113163      990874.71     -389887.9       14741.133     -375146.77     -374610.45    
   3907000      447000   150.75413      0.98988187     55.179682      990536.34     -389849.01      14724.488     -375124.52     -374327.4     
   3908000      448000   150.28839      0.98889837    -23.856002      991521.46     -389841.11      14678.998     -375162.11     -375507.08    
   3909000      449000   149.71547      0.98928019     9.3041957      991138.78     -389848.44      14623.04      -375225.4      -375090.91    
   3910000      450000   150.24169      0.98943509     23.718692      990983.61     -389850.67      14674.437     -375176.24     -374833.44    
   3911000      451000   149.74199      0.98904809    -5.1085594      991371.37     -389857.61      14625.63      -375231.98     -375305.84    
   3912000      452000   148.72319      0.98920855     1.6310113      991210.56     -389901.59      14526.121     -375375.47     -375351.89    
   3913000      453000   149.96243      0.98840707    -53.271881      992014.31     -389834.34      14647.161     -375187.18     -375957.89    
   3914000      454000   150.39383      0.98899489    -6.0381237      991424.7      -389816.31      14689.297     -375127.01     -375214.31    
   3915000      455000   150.54287      0.98962287     47.568467      990795.57     -389756.1       14703.854     -375052.24     -374364.89    
   3916000      456000   150.73593      0.98913        5.467954       991289.27     -389765.34      14722.71      -375042.63     -374963.58    
   3917000      457000   149.10124      0.9881099     -83.617118      992312.65     -389801.29      14563.046     -375238.24     -376448.34    
   3918000      458000   149.25458      0.98947566     19.176201      990942.98     -389879.53      14578.023     -375301.51     -375024.38    
   3919000      459000   149.74259      0.98883642    -27.482269      991583.58     -389704.11      14625.689     -375078.42     -375475.84    
   3920000      460000   150.68659      0.98899443    -12.797452      991425.16     -389992.64      14717.891     -375274.75     -375459.79    
   3921000      461000   150.13101      0.98939433     28.9613        991024.44     -389951.14      14663.627     -375287.51     -374868.93    
   3922000      462000   149.64632      0.98873467    -27.352825      991685.62     -389760.1       14616.286     -375143.81     -375539.41    
   3923000      463000   150.88135      0.98855966    -43.666837      991861.19     -389892.23      14736.914     -375155.31     -375786.96    
   3924000      464000   150.11519      0.98876065    -27.116873      991659.57     -389744.19      14662.081     -375082.11     -375474.28    
   3925000      465000   148.95294      0.98972042     44.839405      990697.92     -389765.04      14548.562     -375216.48     -374568.62    
   3926000      466000   149.76171      0.98914806     6.1068121      991271.17     -389733.21      14627.556     -375105.65     -375017.37    
   3927000      467000   149.11779      0.98900165    -19.767678      991417.92     -390009.26      14564.663     -375444.6      -375730.42    
   3928000      468000   151.0162       0.98918086     8.714014       991238.3      -389845.15      14750.085     -375095.07     -374969.1     
   3929000      469000   149.69121      0.98903082    -11.505448      991388.68     -389929         14620.67      -375308.33     -375474.68    
   3930000      470000   150.21995      0.98969938     44.772141      990718.98     -389836.65      14672.314     -375164.34     -374517.45    
   3931000      471000   148.72979      0.98869399    -44.411162      991726.42     -389807.66      14526.766     -375280.9      -375923.23    
   3932000      472000   150.31844      0.98881487    -21.053891      991605.19     -389893.07      14681.934     -375211.14     -375515.61    
   3933000      473000   149.44004      0.98947261     28.453844      990946.04     -389788.73      14596.137     -375192.59     -374781.38    
   3934000      474000   151.68668      0.98853396    -36.016626      991886.98     -389764.3       14815.572     -374948.73     -375469.74    
   3935000      475000   150.46335      0.989475       39.200173      990943.65     -389826.54      14696.087     -375130.45     -374563.93    
   3936000      476000   149.52113      0.98968207     46.760823      990736.31     -389842.45      14604.058     -375238.39     -374562.75    
   3937000      477000   150.17301      0.98915432     4.5205659      991264.9      -389777.19      14667.729     -375109.46     -375044.11    
   3938000      478000   150.64897      0.988925      -15.000076      991494.77     -389893.4       14714.217     -375179.18     -375396.08    
   3939000      479000   151.19416      0.9892534      12.892335      991165.62     -389668.28      14767.467     -374900.82     -374714.46    
   3940000      480000   150.39203      0.98919959     6.4039023      991219.53     -389845.4       14689.121     -375156.28     -375063.71    
   3941000      481000   150.55322      0.98993939     71.475089      990478.78     -389847.38      14704.864     -375142.51     -374110.05    
   3942000      482000   150.53728      0.99024689     98.055162      990171.2      -389801.71      14703.308     -375098.41     -373682.43    
   3943000      483000   148.87725      0.98869218    -36.73714       991728.25     -389736.48      14541.169     -375195.31     -375726.65    
   3944000      484000   149.81928      0.98972758     46.04378       990690.75     -389881.23      14633.179     -375248.05     -374582.8     
   3945000      485000   149.81443      0.9898504      60.668603      990567.82     -389838.95      14632.705     -375206.25     -374329.8     
   3946000      486000   149.77777      0.98876711    -20.807304      991653.09     -389830.75      14629.125     -375201.63     -375502.55    
   3947000      487000   148.22832      0.9895297      32.451456      990888.87     -389713.05      14477.786     -375235.26     -374766.3     
   3948000      488000   149.20472      0.9894426      25.971546      990976.09     -389763.09      14573.153     -375189.93     -374814.58    
   3949000      489000   150.69655      0.9884343     -51.149208      991986.98     -389872.52      14718.864     -375153.66     -375893.64    
   3950000      490000   149.78469      0.98948982     25.336572      990928.8      -389923.72      14629.801     -375293.92     -374927.77    
   3951000      491000   149.10149      0.98888573    -22.446458      991534.14     -389805.59      14563.071     -375242.52     -375567.1     
   3952000      492000   149.66939      0.98992691     66.662727      990491.27     -389762.61      14618.539     -375144.08     -374181.11    
   3953000      493000   148.09415      0.98912435    -1.7329849      991294.93     -389717.95      14464.682     -375253.27     -375278.32    
   3954000      494000   149.76491      0.98984391     62.371404      990574.32     -389765.23      14627.868     -375137.36     -374236.31    
   3955000      495000   149.37784      0.98865427    -34.137965      991766.27     -389746.14      14590.063     -375156.08     -375649.85    
   3956000      496000   149.75211      0.99019341     87.150296      990224.69     -389810.17      14626.619     -375183.55     -373924.97    
   3957000      497000   150.06286      0.98887454    -11.485355      991545.36     -389824.18      14656.97      -375167.21     -375333.3     
   3958000      498000   150.17149      0.98957501     43.610423      990843.49     -389740.83      14667.58      -375073.25     -374443.06    
   3959000      499000   149.6592       0.98922925     14.529785      991189.81     -389705.34      14617.544     -375087.8      -374877.76    
   3960000      500000   150.02412      0.98906777    -1.2783305      991351.64     -389810.56      14653.186     -375157.37     -375175.86    
Loop time of 1468.11 on 32 procs for 500000 steps with 32768 atoms

Performance: 294.255 ns/day, 0.082 hours/ns, 340.573 timesteps/s, 11.160 Matom-step/s
100.0% CPU use with 32 MPI tasks x no OpenMP threads

MPI task timing breakdown:
Section |  min time  |  avg time  |  max time  |%varavg| %total
---------------------------------------------------------------
Pair    | 1234.5     | 1257.6     | 1284.3     |  31.4 | 85.66
Neigh   | 0          | 0          | 0          |   0.0 |  0.00
Comm    | 147.92     | 175.65     | 196.42     |  83.2 | 11.96
Output  | 0.13377    | 0.17436    | 0.21314    |   5.7 |  0.01
Modify  | 27.448     | 29.87      | 33.812     |  34.6 |  2.03
Other   |            | 4.821      |            |       |  0.33

Nlocal:           1024 ave        1045 max        1003 min
Histogram: 1 3 4 2 3 7 7 4 0 1
Nghost:        2907.22 ave        2928 max        2886 min
Histogram: 1 0 4 6 7 4 2 4 3 1
Neighs:              0 ave           0 max           0 min
Histogram: 32 0 0 0 0 0 0 0 0 0
FullNghs:      94587.7 ave       96822 max       92311 min
Histogram: 1 2 5 2 4 3 10 4 0 1

Total # of neighbors = 3026806
Ave neighs/atom = 92.370789
Neighbor list builds = 0
Dangerous builds = 0

write_data mw-explicit.data nocoeff
System init for write_data ...
Total wall time: 3:20:32
