LAMMPS (2 Aug 2023 - Update 1)
Reading data file ...
  orthogonal box = (0 0 0) to (102.4 102.4 102.4)
  2 by 4 by 4 MPI processor grid
  reading atoms ...
  32768 atoms
  read_data CPU = 0.057 seconds
WARNING: No fixes with time integration, atoms won't move (../verlet.cpp:60)
Neighbor list info ...
  update: every = 1 steps, delay = 0 steps, check = yes
  max neighbors/atom: 2000, page size: 100000
  master list distance cutoff = 6.3065
  ghost atom cutoff = 6.3065
  binsize = 3.15325, bins = 33 33 33
  1 neighbor lists, perpetual/occasional/extra = 1 0 0
  (1) pair sw, perpetual
      attributes: full, newton on
      pair build: full/bin/atomonly
      stencil: full/bin/3d
      bin: standard
Setting up Verlet run ...
  Unit style    : real
  Current step  : 0
  Time step     : 1
Per MPI rank memory allocation (min/avg/max) = 3.248 | 3.258 | 3.264 Mbytes
   Step          Temp          E_pair         E_mol          TotEng         Press     
         0   150           -330851.86      0             -316201.03     -22499.26     
Loop time of 4.47453e-06 on 32 procs for 0 steps with 32768 atoms

39.8% CPU use with 32 MPI tasks x no OpenMP threads

MPI task timing breakdown:
Section |  min time  |  avg time  |  max time  |%varavg| %total
---------------------------------------------------------------
Pair    | 0          | 0          | 0          |   0.0 |  0.00
Neigh   | 0          | 0          | 0          |   0.0 |  0.00
Comm    | 0          | 0          | 0          |   0.0 |  0.00
Output  | 0          | 0          | 0          |   0.0 |  0.00
Modify  | 0          | 0          | 0          |   0.0 |  0.00
Other   |            | 4.475e-06  |            |       |100.00

Nlocal:           1024 ave        1296 max         784 min
Histogram: 2 0 8 0 12 0 0 8 0 2
Nghost:           1275 ave        1515 max        1003 min
Histogram: 2 0 8 0 0 12 0 8 0 2
Neighs:              0 ave           0 max           0 min
Histogram: 32 0 0 0 0 0 0 0 0 0
FullNghs:        26624 ave       33696 max       20384 min
Histogram: 2 0 8 0 12 0 0 8 0 2

Total # of neighbors = 851968
Ave neighs/atom = 26
Neighbor list builds = 0
Dangerous builds = 0
Setting up Verlet run ...
  Unit style    : real
  Current step  : 0
  Time step     : 10
Per MPI rank memory allocation (min/avg/max) = 3.304 | 3.348 | 3.673 Mbytes
   Step       Elapsed        Temp         Density         Press          Volume         PotEng         KinEng         TotEng        Enthalpy   
         0           0   150            0.91317479    -22499.26       1073741.8     -330851.86      14650.83      -316201.03     -668526.47    
      1000        1000   149.66493      1.0984944     -29.633468      892598.04     -350861.61      14618.104     -336243.51     -336629.26    
      2000        2000   150.37683      1.037334      -22.123432      945224.9      -358846.77      14687.636     -344159.14     -344464.11    
      3000        3000   151.13114      1.0076601      36.767943      973060.18     -362688.95      14761.311     -347927.64     -347405.86    
      4000        4000   149.45616      0.99552652    -21.073232      984919.98     -364603.45      14597.712     -350005.74     -350308.44    
      5000        5000   150.33065      0.99067207    -65.18571       989746.24     -365653.22      14683.126     -350970.09     -351911.01    
      6000        6000   150.48007      0.98672775    -147.93778      993702.63     -366358.14      14697.72      -351660.42     -353804.35    
      7000        7000   150.27627      0.9862487     -43.699662      994185.3      -366665.86      14677.814     -351988.05     -352621.65    
      8000        8000   150.92667      0.98595674     25.017572      994479.7      -367147.17      14741.34      -352405.83     -352042.99    
      9000        9000   150.47767      0.98447029     23.777907      995981.26     -367331.42      14697.486     -352633.93     -352288.55    
     10000       10000   150.43262      0.98463289     48.02432       995816.78     -367664.14      14693.086     -352971.06     -352273.6     
     11000       11000   149.51072      0.98354528     39.067903      996917.97     -367908.77      14603.041     -353305.73     -352737.72    
     12000       12000   151.24721      0.98209585    -57.592098      998389.27     -368018.12      14772.648     -353245.47     -354084.04    
     13000       13000   151.06601      0.98161323    -25.357464      998880.14     -368133.82      14754.95      -353378.87     -353748.27    
     14000       14000   149.84629      0.9825267      46.009751      997951.46     -368284.55      14635.818     -353648.74     -352979.11    
     15000       15000   150.61873      0.98184398     3.3377381      998645.38     -368324.34      14711.263     -353613.07     -353564.46    
     16000       16000   149.80636      0.98212202     70.427285      998362.66     -368401.21      14631.917     -353769.29     -352743.86    
     17000       17000   149.79198      0.980881      -6.3062235      999625.8      -368538.5       14630.513     -353907.99     -353999.92    
     18000       18000   149.29026      0.98063217     9.5311774      999879.45     -368648.4       14581.508     -354066.89     -353927.91    
     19000       19000   149.49124      0.97913698    -89.018626      1001406.3     -368636.07      14601.139     -354034.93     -355335       
     20000       20000   149.23312      0.97948662    -42.332798      1001048.9     -368715.33      14575.927     -354139.4      -354757.43    
     21000       21000   151.23347      0.97978167     25.666053      1000747.4     -368924.82      14771.306     -354153.52     -353778.93    
     22000       22000   149.94472      0.97921698    -12.960076      1001324.5     -368808.53      14645.431     -354163.1      -354352.36    
     23000       23000   149.37946      0.98068114     84.975947      999829.53     -368962.81      14590.221     -354372.59     -353133.51    
     24000       24000   149.17449      0.97839267    -56.033494      1002168.1     -369078.77      14570.201     -354508.56     -355327.53    
     25000       25000   151.28338      0.97855254    -6.8269917      1002004.4     -368987         14776.181     -354210.82     -354310.59    
     26000       26000   150.27775      0.9787891     -21.745026      1001762.2     -369199.3       14677.959     -354521.35     -354839.03    
     27000       27000   150.49797      0.97814187    -28.387166      1002425.1     -369284.14      14699.468     -354584.68     -354999.68    
     28000       28000   149.56227      0.97882718     28.190833      1001723.3     -369278.27      14608.077     -354670.2      -354258.35    
     29000       29000   149.29874      0.97834871     47.71536       1002213.2     -369297.05      14582.337     -354714.71     -354017.29    
     30000       30000   150.43605      0.97906388     91.071271      1001481.1     -369275.6       14693.42      -354582.17     -353252.03    
     31000       31000   150.03674      0.9784237      33.58681       1002136.4     -369329.49      14654.419     -354675.07     -354184.19    
     32000       32000   150.70097      0.97847658     41.982412      1002082.2     -369459.82      14719.295     -354740.53     -354126.98    
     33000       33000   150.00056      0.97589567    -67.702792      1004732.4     -369384.31      14650.886     -354733.42     -355725.47    
     34000       34000   150.67846      0.97793588     115.67162      1002636.2     -369499.57      14717.097     -354782.47     -353091.07    
     35000       35000   149.68062      0.97694162    -51.279981      1003656.7     -369459.52      14619.636     -354839.88     -355590.48    
     36000       36000   150.10513      0.976596      -89.424674      1004011.9     -369603.65      14661.099     -354942.55     -356251.95    
     37000       37000   149.84409      0.97774122     43.529861      1002835.9     -369515.33      14635.603     -354879.73     -354243.09    
     38000       38000   150.89336      0.97674236    -30.173822      1003861.4     -369590.2       14738.087     -354852.11     -355293.87    
     39000       39000   147.16493      0.97734257     27.924374      1003244.9     -369681.98      14373.923     -355308.06     -354899.49    
     40000       40000   149.3654       0.97657548    -6.9629387      1004032.9     -369548.72      14588.848     -354959.87     -355061.83    
     41000       41000   150.0221       0.97696109     27.676317      1003636.7     -369761.27      14652.989     -355108.28     -354703.18    
     42000       42000   149.58317      0.97685765    -24.689022      1003742.9     -369612.47      14610.118     -355002.35     -355363.77    
     43000       43000   151.06419      0.97661882    -27.557289      1003988.4     -369656.12      14754.772     -354901.35     -355304.85    
     44000       44000   149.69281      0.97558736    -71.401968      1005049.9     -369696.59      14620.827     -355075.77     -356122.35    
     45000       45000   150.42371      0.97578588    -47.116046      1004845.4     -369798.92      14692.215     -355106.7      -355797.17    
     46000       46000   149.95597      0.9764812     -29.992943      1004129.9     -369699.5       14646.53      -355052.97     -355492.2     
     47000       47000   149.07203      0.97679156     23.397675      1003810.8     -369825.05      14560.194     -355264.86     -354922.33    
     48000       48000   150.5483       0.97598479    -67.9102        1004640.6     -369680.44      14704.384     -354976.06     -355971.06    
     49000       49000   148.79178      0.97680906     17.673351      1003792.9     -369917.04      14532.821     -355384.21     -355125.49    
     50000       50000   149.27488      0.97687376     58.174279      1003726.4     -369817.91      14580.007     -355237.9      -354386.33    
     51000       51000   149.87319      0.97713828     102.14801      1003454.7     -369849.03      14638.445     -355210.58     -353715.71    
     52000       52000   150.15077      0.97585588     3.740408       1004773.3     -370023.96      14665.557     -355358.4      -355303.59    
     53000       53000   149.95333      0.97656255     37.867404      1004046.2     -369982.8       14646.272     -355336.53     -354782.04    
     54000       54000   149.37816      0.97577684    -47.778569      1004854.7     -369947.36      14590.094     -355357.27     -356057.45    
     55000       55000   149.85475      0.97563622    -14.128953      1004999.5     -369968.46      14636.643     -355331.82     -355538.9     
     56000       56000   150.27993      0.97687817     63.937295      1003721.9     -370042.81      14678.172     -355364.64     -354428.71    
     57000       57000   149.52411      0.97538339    -29.162828      1005260.1     -370022.96      14604.349     -355418.61     -355846.15    
     58000       58000   149.3476       0.97607628     15.583713      1004546.4     -369987.45      14587.109     -355400.34     -355172.04    
     59000       59000   150.36404      0.97589569     25.051732      1004732.3     -370034.7       14686.387     -355348.32     -354981.23    
     60000       60000   151.17683      0.97577691     56.299275      1004854.6     -370065.91      14765.774     -355300.13     -354475.08    
     61000       61000   150.29774      0.9757553      25.656106      1004876.9     -370059.48      14679.912     -355379.57     -355003.58    
     62000       62000   149.63312      0.97605006     13.201274      1004573.4     -370017.88      14614.997     -355402.89     -355209.48    
     63000       63000   150.01542      0.97660274     93.053784      1004004.9     -370039.83      14652.336     -355387.49     -354024.96    
     64000       64000   150.62587      0.97580883     11.593867      1004821.8     -370002.04      14711.96      -355290.08     -355120.18    
     65000       65000   150.1598       0.97609804     45.620979      1004524.1     -369979.43      14666.438     -355312.99     -354644.65    
     66000       66000   151.1738       0.97674431     50.451589      1003859.4     -370041.52      14765.478     -355276.04     -354537.41    
     67000       67000   149.64308      0.9752812     -29.697956      1005365.4     -370120         14615.969     -355504.03     -355939.46    
     68000       68000   149.53528      0.97522379    -10.151192      1005424.6     -370081.33      14605.44      -355475.89     -355624.74    
     69000       69000   149.18937      0.97561639    -26.359454      1005020       -370150.34      14571.655     -355578.69     -355965.04    
     70000       70000   149.97483      0.97574658    -18.953062      1004885.9     -370191.37      14648.372     -355543        -355820.76    
     71000       71000   148.35635      0.97614568     35.918407      1004475       -370260.32      14490.291     -355770.03     -355243.85    
     72000       72000   151.11535      0.97605252     23.938309      1004570.9     -370321.23      14759.769     -355561.46     -355210.75    
     73000       73000   150.52291      0.97635122     82.859946      1004263.6     -370099.54      14701.904     -355397.63     -354184.06    
     74000       74000   149.71115      0.97611763     20.729816      1004503.9     -370223.37      14622.618     -355600.75     -355297.06    
     75000       75000   151.17607      0.97647788     101.50224      1004133.3     -370090.73      14765.7       -355325.03     -353838.6     
     76000       76000   149.89537      0.9759307      29.767322      1004696.3     -370214.07      14640.611     -355573.46     -355137.29    
     77000       77000   149.4272       0.97436284    -98.76298       1006313       -370433.05      14594.884     -355838.17     -357287.62    
     78000       78000   150.1896       0.97473479    -70.721119      1005929       -370280.95      14669.349     -355611.6      -356649.11    
     79000       79000   149.15006      0.97495584    -20.46516       1005700.9     -370217.24      14567.814     -355649.43     -355949.59    
     80000       80000   149.27268      0.97530117    -2.3897571      1005344.8     -370267.79      14579.792     -355687.99     -355723.03    
     81000       81000   151.32046      0.976073       106.91572      1004549.8     -370235.56      14779.803     -355455.76     -353889.41    
     82000       82000   149.06913      0.97554084     17.095993      1005097.8     -370300.32      14559.91      -355740.41     -355489.81    
     83000       83000   150.35598      0.9753846      56.643194      1005258.8     -370374.34      14685.6       -355688.74     -354858.31    
     84000       84000   149.86016      0.97509253    -34.168071      1005559.9     -370303.03      14637.172     -355665.86     -356166.94    
     85000       85000   149.80661      0.97536231    -19.977361      1005281.8     -370399.19      14631.942     -355767.24     -356060.13    
     86000       86000   150.08057      0.97528675     9.4168739      1005359.7     -370228.18      14658.7       -355569.48     -355431.41    
     87000       87000   150.36114      0.97558255    -7.882899       1005054.8     -370379.44      14686.104     -355693.33     -355808.88    
     88000       88000   149.36777      0.97687112     104.27213      1003729.1     -370364.2       14589.08      -355775.12     -354248.75    
     89000       89000   149.27459      0.97591858     38.683565      1004708.8     -370286.42      14579.978     -355706.44     -355139.63    
     90000       90000   150.09104      0.97508679    -52.266624      1005565.8     -370396.98      14659.722     -355737.26     -356503.75    
     91000       91000   149.48908      0.9749665     -32.848687      1005689.9     -370352.4       14600.928     -355751.48     -356233.27    
     92000       92000   149.74376      0.97616243     90.698888      1004457.8     -370322.14      14625.802     -355696.33     -354367.69    
     93000       93000   151.34249      0.97475573    -34.229073      1005907.4     -370164.56      14781.955     -355382.61     -355884.75    
     94000       94000   150.50805      0.97514026    -17.888647      1005510.7     -370359.6       14700.453     -355659.14     -355921.47    
     95000       95000   149.68869      0.97466241    -60.30735       1006003.7     -370315.89      14620.425     -355695.47     -356580.27    
     96000       96000   150.3086       0.97535222     29.895581      1005292.2     -370411.7       14680.972     -355730.73     -355292.43    
     97000       97000   149.75203      0.97457896    -5.1895871      1006089.8     -370307.07      14626.611     -355680.46     -355756.6     
     98000       98000   149.29636      0.9748244      7.4116606      1005836.5     -370397.53      14582.105     -355815.43     -355706.71    
     99000       99000   148.75281      0.97564803     50.251739      1004987.4     -370471.16      14529.015     -355942.14     -355205.62    
    100000      100000   150.05009      0.97594562     83.021739      1004680.9     -370535.08      14655.723     -355879.35     -354662.9     
Loop time of 399.124 on 32 procs for 100000 steps with 32768 atoms

Performance: 216.474 ns/day, 0.111 hours/ns, 250.549 timesteps/s, 8.210 Matom-step/s
100.0% CPU use with 32 MPI tasks x no OpenMP threads

MPI task timing breakdown:
Section |  min time  |  avg time  |  max time  |%varavg| %total
---------------------------------------------------------------
Pair    | 321.96     | 341.37     | 361.47     |  43.6 | 85.53
Neigh   | 5.4436     | 5.5589     | 5.8622     |   3.6 |  1.39
Comm    | 23.212     | 44.915     | 64.14      | 121.3 | 11.25
Output  | 0.02942    | 0.037481   | 0.045332   |   2.4 |  0.01
Modify  | 5.3187     | 6.1885     | 7.6278     |  22.5 |  1.55
Other   |            | 1.05       |            |       |  0.26

Nlocal:           1024 ave        1042 max        1008 min
Histogram: 2 4 4 2 4 8 4 0 2 2
Nghost:        2990.31 ave        3035 max        2956 min
Histogram: 2 3 6 6 4 4 3 1 1 2
Neighs:              0 ave           0 max           0 min
Histogram: 32 0 0 0 0 0 0 0 0 0
FullNghs:      95596.6 ave       97745 max       93893 min
Histogram: 3 5 2 2 6 8 1 3 0 2

Total # of neighbors = 3059092
Ave neighs/atom = 93.356079
Neighbor list builds = 1827
Dangerous builds = 0
System init for write_restart ...
Reading restart file ...
  restart file = 2 Aug 2023, LAMMPS = 2 Aug 2023
  restoring atom style atomic from restart
  orthogonal box = (1.1221059 1.1221059 1.1221059) to (101.27789 101.27789 101.27789)
  2 by 4 by 4 MPI processor grid
  pair style sw stores no restart info
  32768 atoms
  read_restart CPU = 0.010 seconds
Resetting global fix info from restart file:
  fix style: npt, fix ID: 1
All restart file global fix info was re-assigned
Neighbor list info ...
  update: every = 1 steps, delay = 0 steps, check = yes
  max neighbors/atom: 2000, page size: 100000
  master list distance cutoff = 8.8065
  ghost atom cutoff = 8.8065
  binsize = 4.40325, bins = 23 23 23
  1 neighbor lists, perpetual/occasional/extra = 1 0 0
  (1) pair sw, perpetual
      attributes: full, newton on
      pair build: full/bin/atomonly
      stencil: full/bin/3d
      bin: standard
Setting up Verlet run ...
  Unit style    : real
  Current step  : 100000
  Time step     : 10
Per MPI rank memory allocation (min/avg/max) = 3.336 | 3.35 | 3.719 Mbytes
   Step       Elapsed        Temp         Density         Press          Volume         PotEng         KinEng         TotEng        Enthalpy   
    100000           0   150.05009      0.97594562     83.021739      1004680.9     -370535.08      14655.723     -355879.35     -354662.9     
    101000        1000   150.68974      0.97494144     50.85654       1005715.8     -370497.32      14718.199     -355779.12     -355033.2     
    102000        2000   150.58859      0.97541638     75.294436      1005226.1     -370444.88      14708.32      -355736.56     -354632.73    
    103000        3000   150.86582      0.97569901     60.607046      1004934.9     -370464.18      14735.397     -355728.78     -354840.53    
    104000        4000   151.13829      0.97508817     31.595831      1005564.4     -370352.53      14762.01      -355590.52     -355127.16    
    105000        5000   151.10637      0.97473045    -5.8391481      1005933.4     -370436.5       14758.892     -355677.61     -355763.27    
    106000        6000   150.45226      0.97511204     17.407243      1005539.8     -370406.35      14695.004     -355711.35     -355456.07    
    107000        7000   150.07712      0.97482473     8.3631007      1005836.2     -370437.77      14658.363     -355779.4      -355656.72    
    108000        8000   151.00828      0.97453708    -21.834261      1006133       -370565.47      14749.312     -355816.16     -356136.54    
    109000        9000   150.05472      0.97488922     4.7992089      1005769.6     -370414.35      14656.175     -355758.18     -355687.78    
    110000       10000   150.12915      0.97477497     10.877132      1005887.5     -370396.76      14663.445     -355733.32     -355573.75    
    111000       11000   151.44407      0.97442653    -23.730644      1006247.2     -370351.15      14791.876     -355559.28     -355907.52    
    112000       12000   151.36701      0.97371726    -35.018426      1006980.2     -370275.54      14784.349     -355491.19     -356005.46    
    113000       13000   151.09669      0.97397035    -19.66089       1006718.5     -370389.99      14757.946     -355632.04     -355920.7     
    114000       14000   152.35968      0.97461007     17.938791      1006057.7     -370343.7       14881.306     -355462.4      -355199.2     
    115000       15000   152.01486      0.97455044     12.382638      1006119.3     -370488.58      14847.626     -355640.95     -355459.26    
    116000       16000   151.15156      0.97455863     23.859229      1006110.8     -370384.16      14763.306     -355620.85     -355270.76    
    117000       17000   151.97034      0.973894      -32.175674      1006797.4     -370335         14843.278     -355491.72     -355964.16    
    118000       18000   151.28667      0.97470985     33.944718      1005954.7     -370272.9       14776.502     -355496.4      -354998.4     
    119000       19000   152.90873      0.97404959     8.8538943      1006636.6     -370403.07      14934.933     -355468.14     -355338.16    
    120000       20000   151.91096      0.97448391     16.226961      1006187.9     -370268.6       14837.478     -355431.13     -355193.01    
    121000       21000   152.61805      0.97393519    -18.656163      1006754.8     -370308.63      14906.541     -355402.08     -355676       
    122000       22000   152.87048      0.97513437     70.978108      1005516.8     -370340.22      14931.197     -355409.02     -354368.16    
    123000       23000   152.07459      0.97416628    -8.8780277      1006516       -370262.42      14853.46      -355408.96     -355539.28    
    124000       24000   150.77454      0.97504489     63.930804      1005609       -370299.69      14726.482     -355573.21     -354635.61    
    125000       25000   152.53041      0.97378363    -25.21598       1006911.5     -370384.91      14897.981     -355486.93     -355857.22    
    126000       26000   151.99746      0.97414628     35.742902      1006536.7     -370273.81      14845.926     -355427.88     -354903.2     
    127000       27000   152.18452      0.97326942    -82.004687      1007443.5     -370209.74      14864.197     -355345.55     -356550.4     
    128000       28000   152.48331      0.97342695    -72.038812      1007280.5     -370371.4       14893.381     -355478.01     -356536.28    
    129000       29000   152.17961      0.97508755     69.008587      1005565.1     -370362.92      14863.718     -355499.2      -354487.18    
    130000       30000   152.94376      0.97447498     31.455389      1006197.2     -370331.41      14938.354     -355393.06     -354931.47    
    131000       31000   154.51788      0.97358914    -19.092153      1007112.7     -370181.44      15092.102     -355089.34     -355369.76    
    132000       32000   153.45866      0.97354712     4.4432724      1007156.1     -370334.93      14988.646     -355346.29     -355281.02    
    133000       33000   153.73229      0.97494964     69.523117      1005707.3     -370277.62      15015.372     -355262.24     -354242.53    
    134000       34000   153.75562      0.9739441      34.222996      1006745.6     -370166.36      15017.65      -355148.71     -354646.24    
    135000       35000   152.90787      0.97429969     7.2392754      1006378.2     -370211.05      14934.848     -355276.2      -355169.95    
    136000       36000   154.60241      0.97377135    -40.321066      1006924.2     -370323.24      15100.358     -355222.88     -355814.99    
    137000       37000   152.67524      0.9745122      56.482785      1006158.7     -370272.83      14912.127     -355360.7      -354531.88    
    138000       38000   154.44755      0.97404283     6.2494417      1006643.6     -370237.74      15085.232     -355152.51     -355060.76    
    139000       39000   153.58433      0.97452468     7.8385613      1006145.8     -370181.46      15000.92      -355180.54     -355065.52    
    140000       40000   153.55532      0.9741469     -1.5249062      1006536       -370163.34      14998.086     -355165.25     -355187.63    
    141000       41000   153.37982      0.97405446    -15.257994      1006631.6     -370287.36      14980.944     -355306.42     -355530.42    
    142000       42000   154.50936      0.974704       70.171358      1005960.7     -370247.36      15091.27      -355156.09     -354126.62    
    143000       43000   153.40525      0.97393207    -30.986986      1006758.1     -370120.21      14983.429     -355136.78     -355591.75    
    144000       44000   154.15512      0.97462297     23.246435      1006044.4     -370128.54      15056.67      -355071.87     -354730.8     
    145000       45000   156.01331      0.97463924     46.908146      1006027.6     -370125.22      15238.163     -354887.06     -354198.83    
    146000       46000   153.699        0.97381625    -49.683976      1006877.8     -370228.53      15012.12      -355216.41     -355945.98    
    147000       47000   153.7745       0.9742118     -8.3528423      1006469       -370310.94      15019.494     -355291.45     -355414.05    
    148000       48000   156.14644      0.97450374     56.290259      1006167.5     -370313.29      15251.167     -355062.13     -354236.13    
    149000       49000   154.54242      0.97420145     33.59983       1006479.7     -370244.81      15094.499     -355150.31     -354657.11    
    150000       50000   154.6065       0.97267017    -85.160305      1008064.2     -370234.33      15100.757     -355133.57     -356385.56    
    151000       51000   153.74339      0.97338355    -39.178581      1007325.4     -370298.57      15016.455     -355282.11     -355857.68    
    152000       52000   156.1542       0.9743881      94.57296       1006286.9     -370178.14      15251.924     -354926.22     -353538.3     
    153000       53000   156.13158      0.97326763    -10.281485      1007445.4     -370184.46      15249.716     -354934.74     -355085.8     
    154000       54000   154.81833      0.97374865     29.855581      1006947.7     -370211.55      15121.448     -355090.1      -354651.66    
    155000       55000   155.16391      0.97403295     3.4675709      1006653.8     -370184.61      15155.201     -355029.41     -354978.5     
    156000       56000   155.9407       0.97310363    -48.107326      1007615.2     -370073.32      15231.071     -354842.24     -355549.18    
    157000       57000   155.89899      0.97374439     20.350525      1006952.1     -370228.73      15226.998     -355001.73     -354702.88    
    158000       58000   155.46951      0.97311074    -32.413323      1007607.8     -370139.4       15185.05      -354954.36     -355430.67    
    159000       59000   156.17001      0.97357458     27.024455      1007127.7     -370265.5       15253.468     -355012.03     -354615.1     
    160000       60000   156.50589      0.97436228     56.499144      1006313.5     -370182.86      15286.275     -354896.59     -354067.4     
    161000       61000   155.11895      0.97314916    -33.249476      1007568       -370132.67      15150.81      -354981.86     -355470.44    
    162000       62000   154.72564      0.97252528    -92.257857      1008214.4     -370157.18      15112.394     -355044.79     -356401.33    
    163000       63000   156.33492      0.9735058      28.241846      1007198.9     -370085.69      15269.576     -354816.11     -354401.27    
    164000       64000   154.85484      0.9728387     -45.361109      1007889.5     -370191.78      15125.014     -355066.76     -355733.53    
    165000       65000   155.94936      0.97348251     11.696176      1007223       -370266.86      15231.917     -355034.94     -354863.13    
    166000       66000   156.3656       0.97271668    -85.755552      1008016       -370175.63      15272.573     -354903.06     -356163.74    
    167000       67000   156.67377      0.97326034    -15.781063      1007452.9     -370169.88      15302.672     -354867.21     -355099.07    
    168000       68000   156.71662      0.97380575     46.383475      1006888.6     -370258.06      15306.858     -354951.2      -354270.09    
    169000       69000   157.59312      0.97315949     6.7128152      1007557.3     -370204.28      15392.467     -354811.81     -354713.17    
    170000       70000   157.0069       0.97323566     2.7615371      1007478.5     -370306.59      15335.209     -354971.38     -354930.81    
    171000       71000   157.09374      0.97309347    -35.832822      1007625.7     -370156.45      15343.692     -354812.76     -355339.33    
    172000       72000   156.34793      0.97323888    -23.733963      1007475.1     -370144.23      15270.847     -354873.39     -355222.11    
    173000       73000   156.28737      0.97323147    -44.385225      1007482.8     -370172.63      15264.932     -354907.7      -355559.86    
    174000       74000   155.53288      0.97324937    -29.274187      1007464.3     -370216.06      15191.239     -355024.83     -355454.95    
    175000       75000   157.49627      0.97313206    -6.8073885      1007585.7     -370160.34      15383.008     -354777.33     -354877.36    
    176000       76000   156.10696      0.973401       13.825837      1007307.3     -370111.27      15247.311     -354863.96     -354660.86    
    177000       77000   158.38262      0.97275802    -43.776292      1007973.1     -370263.92      15469.579     -354794.34     -355437.87    
    178000       78000   157.47209      0.97364286     29.506963      1007057.1     -370225.13      15380.646     -354844.49     -354411.12    
    179000       79000   158.04558      0.97238234    -51.321301      1008362.6     -369994.48      15436.66      -354557.82     -355312.55    
    180000       80000   158.53179      0.97270133    -33.705725      1008031.9     -369922         15484.149     -354437.85     -354933.37    
    181000       81000   159.37668      0.97248188    -27.145205      1008259.4     -369996.19      15566.672     -354429.52     -354828.68    
    182000       82000   157.88274      0.97246557    -54.541611      1008276.3     -369921.28      15420.755     -354500.53     -355302.55    
    183000       83000   157.70109      0.97256471    -81.696428      1008173.5     -370166.92      15403.013     -354763.91     -355965.1     
    184000       84000   158.94494      0.97375581     7.6888468      1006940.3     -369978.43      15524.502     -354453.93     -354341.02    
    185000       85000   158.58959      0.97243985    -68.137031      1008302.9     -370089.85      15489.795     -354600.06     -355602.02    
    186000       86000   159.53724      0.97378113     52.885733      1006914.1     -370131.91      15582.354     -354549.56     -353772.94    
    187000       87000   159.2879       0.97342458     4.9617687      1007282.9     -370159.88      15558         -354601.88     -354528.99    
    188000       88000   158.22079      0.97284099    -42.396626      1007887.2     -370061.15      15453.773     -354607.38     -355230.57    
    189000       89000   158.2965       0.97383779     59.036651      1006855.5     -370036.66      15461.168     -354575.49     -353708.6     
    190000       90000   158.6318       0.97242316    -89.851988      1008320.2     -369916.23      15493.917     -354422.31     -355743.61    
    191000       91000   158.44216      0.97379236     12.524222      1006902.5     -369983.97      15475.395     -354508.57     -354324.66    
    192000       92000   160.00487      0.97391313     60.930329      1006777.6     -369886.24      15628.028     -354258.21     -353363.58    
    193000       93000   158.82965      0.97321087    -22.908532      1007504.1     -369962.31      15513.242     -354449.07     -354785.67    
    194000       94000   160.31547      0.97238646    -44.26384       1008358.3     -370008.48      15658.365     -354350.11     -355001.05    
    195000       95000   158.07075      0.97232401    -63.184735      1008423.1     -369914.56      15439.119     -354475.44     -355404.69    
    196000       96000   160.47681      0.97288188    -23.205354      1007844.8     -369915.84      15674.124     -354241.72     -354582.8     
    197000       97000   159.69691      0.97277215    -17.391765      1007958.5     -369912.97      15597.949     -354315.02     -354570.68    
    198000       98000   160.15063      0.97300807    -47.987252      1007714.1     -370092.66      15642.265     -354450.39     -355155.64    
    199000       99000   160.71895      0.97371593     49.728986      1006981.5     -370102.08      15697.774     -354404.31     -353674       
    200000      100000   160.20094      0.97348859     49.230047      1007216.7     -370029.75      15647.179     -354382.57     -353659.42    
    201000      101000   159.36984      0.97315079    -39.956826      1007566.3     -369887.51      15566.003     -354321.51     -354908.65    
    202000      102000   159.42339      0.97333539    -30.439057      1007375.2     -369802.42      15571.233     -354231.18     -354678.38    
    203000      103000   158.52964      0.97302888    -17.236817      1007692.6     -369895.33      15483.939     -354411.39     -354664.71    
    204000      104000   159.95728      0.97399843     40.592964      1006689.5     -369902.52      15623.38      -354279.14     -353683.17    
    205000      105000   159.07088      0.97359545     8.9626894      1007106.1     -369871.52      15536.803     -354334.72     -354203.07    
    206000      106000   161.06091      0.97326756    -15.497536      1007445.4     -369910.11      15731.174     -354178.94     -354406.64    
    207000      107000   161.29599      0.9734463      4.9144794      1007260.4     -370009.93      15754.135     -354255.8      -354183.6     
    208000      108000   161.61144      0.9730571     -1.3202731      1007663.3     -369839.45      15784.946     -354054.5      -354073.9     
    209000      109000   161.59226      0.97308522     27.224204      1007634.2     -369785.27      15783.072     -354002.2      -353602.13    
    210000      110000   161.13999      0.97219578    -97.389262      1008556.1     -369782.41      15738.898     -354043.51     -355475.99    
    211000      111000   161.187        0.97367213     85.051444      1007026.8     -369876.65      15743.489     -354133.16     -352884.06    
    212000      112000   161.31961      0.97282772    -5.0423717      1007900.9     -369892.55      15756.442     -354136.11     -354210.23    
    213000      113000   161.29082      0.97227932    -58.538653      1008469.4     -369874.64      15753.63      -354121.01     -354981.97    
    214000      114000   161.59534      0.97307373     6.3956878      1007646.1     -369885.5       15783.373     -354102.12     -354008.13    
    215000      115000   160.52417      0.97287347     36.34638       1007853.5     -369879.79      15678.75      -354201.04     -353666.8     
    216000      116000   161.86937      0.97294644    -26.55596       1007777.9     -369853.74      15810.138     -354043.6      -354433.91    
    217000      117000   162.04555      0.97203622    -48.101413      1008721.6     -370020.1       15827.346     -354192.76     -354900.39    
    218000      118000   162.72582      0.97227499    -37.087028      1008473.9     -369823.8       15893.789     -353930.01     -354475.47    
    219000      119000   161.96061      0.97309708     44.43579       1007621.9     -369766.79      15819.049     -353947.74     -353294.75    
    220000      120000   162.66185      0.97246715    -11.081357      1008274.6     -369963.17      15887.541     -354075.63     -354238.58    
    221000      121000   162.40337      0.97304674     67.149166      1007674.1     -369899.58      15862.295     -354037.28     -353050.47    
    222000      122000   162.35985      0.97192843    -40.337835      1008833.5     -369822.56      15858.044     -353964.52     -354558       
    223000      123000   161.80987      0.9727799      46.64456       1007950.5     -369722.28      15804.327     -353917.96     -353232.29    
    224000      124000   162.00099      0.97221296    -13.40938       1008538.2     -369877.5       15822.994     -354054.51     -354251.74    
    225000      125000   163.46023      0.97157089    -61.509954      1009204.7     -369808.12      15965.52      -353842.6      -354747.92    
    226000      126000   161.84658      0.97214594    -67.730237      1008607.8     -369659.34      15807.912     -353851.43     -354847.71    
    227000      127000   162.55658      0.9729829      7.5299389      1007740.2     -369583.46      15877.259     -353706.2      -353595.53    
    228000      128000   163.38686      0.97192176    -33.64593       1008840.4     -369805.63      15958.355     -353847.28     -354342.31    
    229000      129000   163.26506      0.97229293    -37.904808      1008455.3     -369709.79      15946.458     -353763.33     -354320.81    
    230000      130000   162.86036      0.97192536    -44.104466      1008836.7     -369755.6       15906.93      -353848.67     -354497.57    
    231000      131000   164.6714       0.97264245     25.848296      1008092.9     -369745.17      16083.819     -353661.35     -353281.33    
    232000      132000   163.44406      0.97212883    -50.992549      1008625.5     -369674.65      15963.941     -353710.71     -354460.8     
    233000      133000   164.24378      0.97192918    -29.732379      1008832.7     -369741.7       16042.052     -353699.64     -354137.09    
    234000      134000   162.23847      0.97304493     70.304973      1007675.9     -369732.84      15846.188     -353886.65     -352853.46    
    235000      135000   165.21586      0.97312032     16.45987       1007597.9     -369558.03      16136.997     -353421.04     -353179.16    
    236000      136000   162.90549      0.97191923    -49.271156      1008843       -369685.8       15911.338     -353774.46     -354499.38    
    237000      137000   163.61223      0.97112703    -86.391696      1009666       -369605.32      15980.367     -353624.96     -354897.07    
    238000      138000   163.19789      0.97266132    -8.5617205      1008073.4     -369724.57      15939.897     -353784.67     -353910.54    
    239000      139000   164.54978      0.97277616     38.124851      1007954.3     -369687.75      16071.94      -353615.82     -353055.38    
    240000      140000   164.37556      0.97382634     68.031671      1006867.4     -369765.32      16054.923     -353710.4      -352711.42    
    241000      141000   164.18202      0.97252945    -30.583451      1008210       -369656.6       16036.019     -353620.58     -354070.27    
    242000      142000   165.06894      0.97249106    -4.3725709      1008249.8     -369593.72      16122.647     -353471.07     -353535.37    
    243000      143000   163.61729      0.97271824    -29.73669       1008014.4     -369607.95      15980.861     -353627.09     -354064.25    
    244000      144000   164.26868      0.97229256    -27.431545      1008455.7     -369573.79      16044.484     -353529.3      -353932.75    
    245000      145000   165.21829      0.97273412     22.3385        1007997.9     -369645.96      16137.234     -353508.73     -353180.34    
    246000      146000   165.33691      0.97288305     4.8503954      1007843.6     -369552.12      16148.82      -353403.3      -353332.01    
    247000      147000   165.02329      0.97216547    -38.754476      1008587.5     -369676.57      16118.188     -353558.38     -354128.43    
    248000      148000   165.32526      0.97268176    -5.1052811      1008052.2     -369463.51      16147.683     -353315.82     -353390.88    
    249000      149000   164.19061      0.97251472    -1.023501       1008225.3     -369622.33      16036.858     -353585.47     -353600.52    
    250000      150000   165.10917      0.97244122    -39.607485      1008301.5     -369556.84      16126.576     -353430.27     -354012.7     
    251000      151000   165.70531      0.97283588     24.909616      1007892.5     -369497.03      16184.802     -353312.23     -352946.08    
    252000      152000   165.27217      0.97259467    -10.998756      1008142.4     -369462.63      16142.497     -353320.14     -353481.85    
    253000      153000   165.63408      0.97209231    -29.723782      1008663.4     -369620.63      16177.846     -353442.79     -353880.03    
    254000      154000   165.40798      0.97342356     41.355867      1007284       -369680.56      16155.762     -353524.8      -352917.27    
    255000      155000   166.06086      0.97311058     72.489309      1007608       -369546.47      16219.53      -353326.94     -352261.72    
    256000      156000   166.18945      0.97211932    -19.484018      1008635.4     -369477.98      16232.09      -353245.89     -353532.5     
    257000      157000   166.34349      0.97275875     70.556445      1007972.4     -369551.15      16247.135     -353304.02     -352266.82    
    258000      158000   168.34434      0.9723751     -7.2435005      1008370.1     -369463.5       16442.562     -353020.94     -353127.46    
    259000      159000   165.99923      0.97259346     12.737901      1008143.7     -369402.77      16213.51      -353189.26     -353001.98    
    260000      160000   166.01208      0.97233583    -22.720224      1008410.8     -369561.96      16214.766     -353347.19     -353681.33    
    261000      161000   165.16355      0.97177298    -70.245652      1008994.9     -369363.65      16131.888     -353231.76     -354265.44    
    262000      162000   166.1349       0.97284591    -16.907603      1007882.1     -369467.19      16226.762     -353240.43     -353488.95    
    263000      163000   166.64544      0.97205176    -14.273405      1008705.5     -369432.69      16276.628     -353156.06     -353366.03    
    264000      164000   165.49152      0.97283778    -12.145429      1007890.5     -369464.35      16163.921     -353300.43     -353478.96    
    265000      165000   166.67709      0.97318441     87.088782      1007531.5     -369351.35      16279.719     -353071.63     -351791.96    
    266000      166000   167.64163      0.97177324    -33.740476      1008994.6     -369375.63      16373.927     -353001.7      -353498.2     
    267000      167000   167.38734      0.97268249     36.45066       1008051.4     -369423.04      16349.09      -353073.95     -352538.07    
    268000      168000   166.03939      0.97226593    -26.639723      1008483.3     -369407.58      16217.433     -353190.15     -353581.95    
    269000      169000   166.41502      0.9725499      3.8810696      1008188.8     -369476.64      16254.122     -353222.52     -353165.45    
    270000      170000   167.9414       0.97319337     76.916082      1007522.2     -369360.11      16403.206     -352956.9      -351826.72    
    271000      171000   166.57642      0.97284431     29.545783      1007883.7     -369267.04      16269.886     -352997.15     -352562.86    
    272000      172000   165.87205      0.97196895    -67.084137      1008791.4     -369258.91      16201.089     -353057.82     -354044.78    
    273000      173000   167.32664      0.97275044     26.529703      1007981       -369321.87      16343.161     -352978.71     -352588.72    
    274000      174000   166.11152      0.97320749     40.479656      1007507.6     -369376.45      16224.478     -353151.97     -352557.18    
    275000      175000   167.68299      0.97313433     58.37601       1007583.4     -369440.54      16377.967     -353062.57     -352204.76    
    276000      176000   168.492        0.9719762     -24.590883      1008783.9     -369452.25      16456.985     -352995.26     -353357.04    
    277000      177000   168.72441      0.97229017     42.035457      1008458.2     -369394.73      16479.685     -352915.05     -352296.82    
    278000      178000   166.67205      0.97305048     98.17848       1007670.2     -369308.46      16279.226     -353029.23     -351586.42    
    279000      179000   169.37587      0.97180831    -21.650044      1008958.2     -369358.85      16543.314     -352815.54     -353134.11    
    280000      180000   168.20578      0.97274719     62.279624      1007984.4     -369420.82      16429.029     -352991.79     -352076.25    
    281000      181000   167.90417      0.971982      -16.401371      1008777.9     -369426.29      16399.57      -353026.72     -353268.02    
    282000      182000   168.66604      0.972141       19.64772       1008612.9     -369336.13      16473.984     -352862.15     -352573.14    
    283000      183000   169.20541      0.97218791     10.108666      1008564.2     -369305.16      16526.665     -352778.5      -352629.81    
    284000      184000   167.87072      0.97219088    -11.496257      1008561.2     -369200.63      16396.303     -352804.32     -352973.42    
    285000      185000   168.40207      0.97153994    -65.63788       1009236.9     -369133.56      16448.201     -352685.36     -353651.46    
    286000      186000   166.94337      0.97221621    -17.236134      1008534.9     -369282.54      16305.727     -352976.82     -353230.33    
    287000      187000   168.17336      0.97232006     39.290851      1008427.2     -369319.74      16425.862     -352893.87     -352316.03    
    288000      188000   168.92181      0.97321935     79.9126        1007495.3     -369227.06      16498.966     -352728.1      -351553.92    
    289000      189000   169.87388      0.97164509    -36.106188      1009127.7     -369213.02      16591.956     -352621.07     -353152.45    
    290000      190000   168.74451      0.97269128     57.865391      1008042.3     -369326.31      16481.648     -352844.67     -351993.97    
    291000      191000   169.93444      0.97159657    -13.970281      1009178.1     -369158.81      16597.871     -352560.94     -352766.55    
    292000      192000   169.13679      0.97265412     70.13578       1008080.8     -369259.5       16519.963     -352739.54     -351708.41    
    293000      193000   168.39026      0.97107645    -89.438067      1009718.6     -369353.13      16447.047     -352906.09     -354223.13    
    294000      194000   169.91078      0.97149814    -36.412919      1009280.3     -369171.3       16595.56      -352575.74     -353111.71    
    295000      195000   171.32669      0.97253852     80.854851      1008200.6     -369219.24      16733.856     -352485.39     -351296.53    
    296000      196000   169.45803      0.97260281     34.85528       1008134       -369140.04      16551.339     -352588.7      -352076.24    
    297000      197000   170.13085      0.97179923    -12.589563      1008967.6     -369259.45      16617.055     -352642.39     -352827.65    
    298000      198000   170.89233      0.97122638    -39.036684      1009562.7     -369088.16      16691.43      -352396.72     -352971.48    
    299000      199000   169.53843      0.97240377     19.906988      1008340.3     -369134.8       16559.192     -352575.61     -352282.86    
    300000      200000   171.30706      0.97243558     35.827539      1008307.4     -369253.14      16731.938     -352521.2      -351994.35    
    301000      201000   169.96168      0.97201675     32.128359      1008741.8     -369162.96      16600.532     -352562.42     -352089.77    
    302000      202000   170.35252      0.97215137    -41.899349      1008602.1     -369224         16638.706     -352585.29     -353201.61    
    303000      203000   171.55375      0.97233064    -15.01786       1008416.2     -369214.71      16756.033     -352458.68     -352679.54    
    304000      204000   168.69356      0.97222666    -18.23334       1008524       -369212.23      16476.672     -352735.56     -353003.74    
    305000      205000   169.76291      0.97193194    -36.485338      1008829.9     -369160.07      16581.118     -352578.95     -353115.75    
    306000      206000   169.8506       0.97226467     36.359289      1008484.6     -369118.45      16589.682     -352528.77     -351994.01    
    307000      207000   170.23903      0.97185757    -30.670927      1008907.1     -369072.02      16627.621     -352444.4      -352895.69    
    308000      208000   172.64539      0.97231362    -20.168854      1008433.8     -368932.56      16862.655     -352069.91     -352366.53    
    309000      209000   170.40858      0.97169622    -65.790813      1009074.6     -369130.74      16644.181     -352486.56     -353454.76    
    310000      210000   169.82122      0.97220919    -35.054456      1008542.2     -369057.2       16586.812     -352470.38     -352985.98    
    311000      211000   170.41943      0.97248306    -46.066784      1008258.1     -369183.25      16645.241     -352538.01     -353215.4     
    312000      212000   171.06233      0.97298363     51.031101      1007739.4     -369026.32      16708.034     -352318.29     -351568.29    
    313000      213000   171.24331      0.97260051     37.074732      1008136.4     -369061.39      16725.711     -352335.68     -351790.58    
    314000      214000   171.62192      0.97282614     19.806561      1007902.6     -369130.86      16762.691     -352368.17     -352077.03    
    315000      215000   172.1256       0.97182872    -39.944812      1008937       -369032.18      16811.887     -352220.29     -352808.05    
    316000      216000   173.08021      0.97193069    -40.017034      1008831.2     -369077.47      16905.126     -352172.34     -352761.1     
    317000      217000   172.27931      0.9725586      42.509876      1008179.8     -369185.57      16826.9       -352358.67     -351733.64    
    318000      218000   171.40309      0.97165146    -32.238564      1009121.1     -369036.57      16741.318     -352295.26     -352769.71    
    319000      219000   171.34776      0.97101074    -59.028608      1009786.9     -369264.15      16735.913     -352528.24     -353397.54    
    320000      220000   172.60662      0.97234206     17.338004      1008404.3     -369189.49      16858.869     -352330.62     -352075.64    
    321000      221000   172.75757      0.97259495     58.550085      1008142.1     -369011.48      16873.612     -352137.87     -351277.02    
    322000      222000   172.7889       0.97206743     11.619171      1008689.2     -369210.53      16876.672     -352333.86     -352162.93    
    323000      223000   171.76442      0.97114358    -106.67398      1009648.8     -369005.08      16776.609     -352228.47     -353799.21    
    324000      224000   171.75249      0.97236203     29.836709      1008383.6     -369100.25      16775.444     -352324.81     -351886.02    
    325000      225000   172.34047      0.97136429    -54.549909      1009419.4     -369057.5       16832.873     -352224.63     -353027.67    
    326000      226000   172.36091      0.97205758    -16.729274      1008699.5     -368904.82      16834.87      -352069.95     -352316.05    
    327000      227000   172.74818      0.97220092     13.25877       1008550.7     -369105.6       16872.695     -352232.91     -352037.89    
    328000      228000   172.48051      0.97205326     0.70415768     1008703.9     -368991.56      16846.552     -352145.01     -352134.65    
    329000      229000   172.78944      0.97227959     41.341859      1008469.1     -369027.01      16876.725     -352150.28     -351542.25    
    330000      230000   173.40964      0.97156397    -43.960634      1009211.9     -369033.51      16937.302     -352096.21     -352743.23    
    331000      231000   172.42251      0.97105378    -46.530043      1009742.2     -368811.17      16840.887     -351970.28     -352655.49    
    332000      232000   172.26932      0.97157711    -3.7019804      1009198.3     -369006.01      16825.924     -352180.09     -352234.57    
    333000      233000   173.76397      0.97185218     6.4518599      1008912.7     -368876.18      16971.91      -351904.27     -351809.33    
    334000      234000   175.49042      0.97237728     61.539954      1008367.8     -368945.22      17140.536     -351804.68     -350899.67    
    335000      235000   174.49996      0.97181691    -8.9321158      1008949.3     -369008.44      17043.795     -351964.65     -352096.08    
    336000      236000   173.04772      0.97129166    -13.604869      1009494.9     -369005.11      16901.952     -352103.16     -352303.46    
    337000      237000   174.23338      0.97233754     94.464942      1008409       -368949.8       17017.758     -351932.04     -350542.78    
    338000      238000   174.21641      0.97284751     100.18414      1007880.4     -368973.34      17016.101     -351957.24     -350484.64    
    339000      239000   174.35266      0.97230308     20.084349      1008444.8     -369048.3       17029.408     -352018.89     -351723.51    
    340000      240000   173.35238      0.97077864    -91.817944      1010028.4     -368883.1       16931.709     -351951.39     -353303.89    
    341000      241000   173.62706      0.9718849      2.9354184      1008878.7     -368962.87      16958.538     -352004.33     -351961.14    
    342000      242000   174.58102      0.97255787     63.418112      1008180.6     -368814.39      17051.713     -351762.68     -350830.22    
    343000      243000   174.12372      0.9715831     -8.7305538      1009192.1     -368706.72      17007.047     -351699.68     -351828.17    
    344000      244000   175.4623       0.97240658     60.953396      1008337.4     -368903.06      17137.789     -351765.27     -350868.92    
    345000      245000   174.26382      0.97183237     16.776653      1008933.2     -368860.61      17020.731     -351839.88     -351593.02    
    346000      246000   175.54378      0.97253209     80.331231      1008207.3     -368787.92      17145.748     -351642.17     -350461.01    
    347000      247000   174.47654      0.97252839     46.934497      1008211.1     -368977.95      17041.508     -351936.44     -351246.33    
    348000      248000   173.81195      0.97236135     38.12717       1008384.3     -368679.18      16976.596     -351702.58     -351141.87    
    349000      249000   175.22737      0.97145951     6.8764765      1009320.5     -368808.52      17114.843     -351693.68     -351592.46    
    350000      250000   175.3578       0.97209084     58.588647      1008665       -368815.26      17127.583     -351687.68     -350825.82    
    351000      251000   175.38781      0.97222735     26.971933      1008523.3     -368724.93      17130.513     -351594.42     -351197.71    
    352000      252000   175.74013      0.97157208    -35.292308      1009203.5     -368573.01      17164.926     -351408.09     -351927.53    
    353000      253000   176.82264      0.97284876     77.578643      1007879.1     -368693.41      17270.656     -351422.76     -350282.44    
    354000      254000   175.43697      0.9720096     -3.8572587      1008749.3     -368832.72      17135.315     -351697.4      -351754.15    
    355000      255000   175.37645      0.97168573     18.068271      1009085.5     -368982.03      17129.405     -351852.62     -351586.72    
    356000      256000   174.37144      0.97051608    -103.55063      1010301.6     -368685.5       17031.243     -351654.26     -353179.99    
    357000      257000   176.22064      0.97116852    -53.048768      1009622.9     -368882.1       17211.858     -351670.24     -352451.35    
    358000      258000   176.24762      0.97147473    -18.301392      1009304.6     -368829.11      17214.493     -351614.61     -351884       
    359000      259000   174.67621      0.9719202     -2.5912949      1008842       -368564.73      17061.01      -351503.72     -351541.85    
    360000      260000   176.68525      0.97142164    -17.195894      1009359.8     -368856.13      17257.237     -351598.9      -351852.03    
    361000      261000   175.39149      0.97148493    -24.409395      1009294       -368671.85      17130.874     -351540.97     -351900.27    
    362000      262000   177.01656      0.97236883     43.393078      1008376.6     -368742.76      17289.598     -351453.16     -350815.02    
    363000      263000   177.51973      0.97256928     91.348862      1008168.8     -368649.28      17338.743     -351310.54     -349967.43    
    364000      264000   177.21704      0.97186242    -40.473683      1008902       -368675.98      17309.179     -351366.81     -351962.33    
    365000      265000   175.95817      0.97156891    -10.944983      1009206.8     -368591.34      17186.222     -351405.11     -351566.2     
    366000      266000   177.13168      0.97229661     27.678404      1008451.5     -368668.94      17300.842     -351368.09     -350961.02    
    367000      267000   176.27064      0.97154499    -13.783858      1009231.7     -368600.14      17216.741     -351383.4      -351586.28    
    368000      268000   177.40017      0.97212307     20.296959      1008631.5     -368564.58      17327.066     -351237.51     -350938.95    
    369000      269000   178.05576      0.97066292    -65.461532      1010148.8     -368492.46      17391.098     -351101.36     -352065.74    
    370000      270000   177.13661      0.97097164    -55.041817      1009827.6     -368488.14      17301.323     -351186.82     -351997.43    
    371000      271000   177.65313      0.97127654    -45.650567      1009510.6     -368561.24      17351.773     -351209.47     -351881.57    
    372000      272000   176.53376      0.97260612     80.170819      1008130.6     -368715.9       17242.442     -351473.45     -350294.74    
    373000      273000   177.54558      0.97188283     45.381576      1008880.8     -368643.03      17341.268     -351301.76     -350634.04    
    374000      274000   176.84588      0.97274838     60.315204      1007983.1     -368543.39      17272.927     -351270.46     -350383.8     
    375000      275000   179.0404       0.97173087     33.64224       1009038.6     -368494.03      17487.27      -351006.76     -350511.69    
    376000      276000   177.04624      0.97162182    -15.342265      1009151.9     -368628.95      17292.496     -351336.46     -351562.26    
    377000      277000   176.75618      0.97081245    -63.028438      1009993.2     -368516.56      17264.165     -351252.39     -352180.79    
    378000      278000   178.38463      0.97170661     45.067421      1009063.8     -368619.69      17423.219     -351196.47     -350533.25    
    379000      279000   178.5372       0.97180584    -13.848268      1008960.8     -368509.38      17438.121     -351071.26     -351275.03    
    380000      280000   176.96862      0.97099962    -60.638865      1009798.5     -368492.9       17284.915     -351207.98     -352101.01    
    381000      281000   177.18327      0.97223481     39.51367       1008515.6     -368372.52      17305.88      -351066.64     -350485.47    
    382000      282000   178.6643       0.97116929    -50.793694      1009622.1     -368424.22      17450.536     -350973.69     -351721.59    
    383000      283000   177.3746       0.97155285    -25.764648      1009223.5     -368584.76      17324.568     -351260.2      -351639.41    
    384000      284000   179.81305      0.9728792      117.23896      1007847.6     -368338.16      17562.737     -350775.42     -349052.19    
    385000      285000   177.64474      0.97151701     21.70499       1009260.7     -368436.57      17350.953     -351085.62     -350766.15    
    386000      286000   179.91835      0.97195247     37.577026      1008808.5     -368389.65      17573.022     -350816.63     -350263.78    
    387000      287000   178.91671      0.97193607     12.649542      1008825.6     -368511.6       17475.189     -351036.41     -350850.3     
    388000      288000   178.22193      0.97134951    -18.857032      1009434.8     -368353.72      17407.328     -350946.4      -351224       
    389000      289000   179.18036      0.97138151     31.897112      1009401.5     -368473.06      17500.941     -350972.12     -350502.56    
    390000      290000   178.70681      0.97228987     73.686686      1008458.5     -368506.53      17454.687     -351051.85     -349968.11    
    391000      291000   178.40975      0.97203556     40.992441      1008722.3     -368645.83      17425.673     -351220.15     -350617.11    
    392000      292000   179.57036      0.97167646     44.800184      1009095.1     -368499.3       17539.033     -350960.27     -350300.96    
    393000      293000   179.94496      0.97086329    -31.476201      1009940.3     -368333.61      17575.62      -350757.99     -351221.6     
    394000      294000   177.95289      0.97125133    -0.41606356     1009536.8     -368414.32      17381.051     -351033.27     -351039.39    
    395000      295000   180.33705      0.97114861    -38.396084      1009643.6     -368285.5       17613.917     -350671.58     -351236.95    
    396000      296000   180.05206      0.97049156    -62.716958      1010327.1     -368330.11      17586.082     -350744.03     -351668.13    
    397000      297000   180.81516      0.97113053    -4.9055702      1009662.4     -368228.27      17660.615     -350567.65     -350639.89    
    398000      298000   180.46762      0.97150304    -10.487851      1009275.2     -368288         17626.67      -350661.33     -350815.71    
    399000      299000   179.64409      0.97102342    -11.542157      1009773.8     -368338.61      17546.234     -350792.37     -350962.35    
    400000      300000   181.36074      0.97217929     57.077497      1008573.2     -368361.74      17713.903     -350647.84     -349808.29    
    401000      301000   180.35386      0.97301156     116.02347      1007710.5     -368265.73      17615.559     -350650.17     -348945.04    
    402000      302000   180.43125      0.9717567      18.968668      1009011.8     -368254.7       17623.118     -350631.59     -350352.46    
    403000      303000   180.32066      0.97126159    -2.2369118      1009526.1     -368258.31      17612.316     -350645.99     -350678.93    
    404000      304000   180.46971      0.97169826     4.7262719      1009072.5     -368213.35      17626.874     -350586.47     -350516.92    
    405000      305000   179.96645      0.97298463     49.400411      1007738.4     -368310.44      17577.72      -350732.72     -350006.69    
    406000      306000   180.50875      0.97213896    -2.2193856      1008615       -368340.26      17630.687     -350709.57     -350742.22    
    407000      307000   179.77078      0.97188378     7.6467065      1008879.9     -368144.47      17558.609     -350585.86     -350473.36    
    408000      308000   181.1166       0.97200045     33.807917      1008758.8     -368287.33      17690.057     -350597.27     -350099.9     
    409000      309000   181.02959      0.97217092     27.661205      1008581.9     -368265.73      17681.559     -350584.17     -350177.3     
    410000      310000   179.75201      0.97245365     45.962713      1008288.6     -368118.69      17556.774     -350561.92     -349886.04    
    411000      311000   181.0411       0.97248329     59.017159      1008257.9     -368352.34      17682.683     -350669.66     -349801.85    
    412000      312000   181.22218      0.97196754     3.8995787      1008792.9     -368203.42      17700.37      -350503.05     -350445.68    
    413000      313000   181.64982      0.97057812    -106.08985      1010237       -368056.57      17742.138     -350314.43     -351877.48    
    414000      314000   180.27233      0.97229733     17.323019      1008450.7     -368017.9       17607.596     -350410.3      -350155.53    
    415000      315000   182.42976      0.97161528    -0.73617115     1009158.6     -368148.83      17818.316     -350330.51     -350341.35    
    416000      316000   184.24948      0.97132298    -55.464002      1009462.3     -368024.78      17996.053     -350028.72     -350845.26    
    417000      317000   182.66935      0.97176703    -3.1383904      1009001.1     -368091.52      17841.718     -350249.8      -350295.98    
    418000      318000   182.56757      0.97327468     68.56173       1007438.1     -368060.26      17831.777     -350228.48     -349221.14    
    419000      319000   182.17987      0.97117029    -64.821838      1009621       -368114.83      17793.91      -350320.92     -351275.37    
    420000      320000   182.4843       0.97157587    -52.054765      1009199.6     -368248.59      17823.644     -350424.95     -351191.1     
    421000      321000   181.57562      0.97139882     2.8296893      1009383.5     -368221.74      17734.891     -350486.85     -350445.19    
    422000      322000   181.53392      0.97128675    -57.84251       1009500       -368169.44      17730.818     -350438.62     -351290.21    
    423000      323000   182.40878      0.97192647     24.266182      1008835.5     -368072.88      17816.268     -350256.62     -349899.59    
    424000      324000   181.66649      0.97073975    -82.56117       1010068.8     -368436.31      17743.766     -350692.54     -351908.74    
    425000      325000   181.22112      0.97242975     87.874729      1008313.4     -368268.98      17700.266     -350568.72     -349276.5     
    426000      326000   182.59317      0.97111673     4.7462277      1009676.7     -368120.2       17834.277     -350285.92     -350216.03    
    427000      327000   182.64684      0.97147205    -18.513101      1009307.4     -368292.69      17839.52      -350453.17     -350725.67    
    428000      328000   182.14406      0.9702081     -86.265158      1010622.3     -368228.69      17790.411     -350438.28     -351709.74    
    429000      329000   183.19947      0.97136642     52.079235      1009417.2     -368442.9       17893.496     -350549.41     -349782.73    
    430000      330000   182.70408      0.971059      -31.484945      1009736.7     -368281.42      17845.11      -350436.31     -350899.95    
    431000      331000   184.54525      0.97196274     34.686648      1008797.9     -368168         18024.941     -350143.06     -349632.74    
    432000      332000   181.64046      0.97193785     60.93358       1008823.7     -368219         17741.224     -350477.78     -349581.28    
    433000      333000   183.53493      0.97137363    -49.368893      1009409.7     -368124.96      17926.261     -350198.7      -350925.47    
    434000      334000   183.56153      0.97281712     68.625193      1007911.9     -368146.28      17928.859     -350217.42     -349208.67    
    435000      335000   184.74489      0.97138765    -2.0743729      1009395.1     -368101.52      18044.44      -350057.08     -350087.62    
    436000      336000   184.88777      0.97171259     41.135343      1009057.6     -368088.69      18058.396     -350030.29     -349424.94    
    437000      337000   183.97091      0.96995733    -123.77976      1010883.6     -368038.34      17968.844     -350069.5      -351894.35    
    438000      338000   185.007        0.97045108    -41.119419      1010369.3     -368147.7       18070.041     -350077.66     -350683.56    
    439000      339000   183.5999       0.97059305    -111.66158      1010221.5     -368147.87      17932.607     -350215.26     -351860.37    
    440000      340000   185.00766      0.97168016    -13.552816      1009091.3     -368008.31      18070.106     -349938.21     -350137.66    
    441000      341000   184.16101      0.97125728    -60.594484      1009530.6     -368057.32      17987.412     -350069.91     -350962.04    
    442000      342000   185.00693      0.9714413      2.0128779      1009339.4     -368071.85      18070.035     -350001.82     -349972.19    
    443000      343000   184.38231      0.97176529     20.460625      1009002.9     -368332.01      18009.027     -350322.98     -350021.9     
    444000      344000   184.62187      0.9714167     -34.689103      1009364.9     -367993.92      18032.424     -349961.49     -350472.13    
    445000      345000   184.70835      0.97115127    -29.977101      1009640.8     -368140.57      18040.871     -350099.7      -350541.1     
    446000      346000   184.47569      0.9714619     -36.140327      1009318       -368138.12      18018.147     -350119.97     -350651.95    
    447000      347000   185.07802      0.97199007     9.7699901      1008769.5     -368058.51      18076.978     -349981.53     -349837.79    
    448000      348000   185.31258      0.97207934     71.264986      1008676.9     -368154.31      18099.888     -350054.42     -349006.08    
    449000      349000   184.51872      0.9720263      24.38992       1008731.9     -368111.43      18022.35      -350089.08     -349730.27    
    450000      350000   184.90511      0.97097291    -85.389456      1009826.3     -367943.59      18060.089     -349883.5      -351141.06    
    451000      351000   185.09466      0.97175921     3.4894455      1009009.2     -367898.33      18078.603     -349819.73     -349768.38    
    452000      352000   184.95018      0.9717172     -26.199863      1009052.8     -368046.47      18064.492     -349981.98     -350367.54    
    453000      353000   186.10227      0.97127388    -68.895899      1009513.4     -367888.83      18177.018     -349711.81     -350726.14    
    454000      354000   186.7755       0.97183312    -18.452162      1008932.4     -367990.66      18242.775     -349747.89     -350019.4     
    455000      355000   186.21951      0.97183436     29.976907      1008931.2     -367929.92      18188.47      -349741.45     -349300.36    
    456000      356000   185.63288      0.97160772    -22.962035      1009166.5     -367918.69      18131.172     -349787.52     -350125.46    
    457000      357000   185.77732      0.97157193    -43.098766      1009203.7     -367912.49      18145.281     -349767.21     -350401.55    
    458000      358000   186.376        0.97158854    -37.368829      1009186.4     -367873.44      18203.754     -349669.68     -350219.68    
    459000      359000   185.68707      0.97117566    -55.34896       1009615.5     -367889.88      18136.465     -349753.42     -350568.39    
    460000      360000   185.77766      0.97057778    -109.10599      1010237.4     -367964.31      18145.313     -349819        -351426.49    
    461000      361000   185.39711      0.97183456     19.119192      1008930.9     -367956.8       18108.144     -349848.65     -349567.33    
    462000      362000   185.80901      0.97175209     20.684488      1009016.6     -367722.15      18148.376     -349573.77     -349269.39    
    463000      363000   186.25201      0.97124701    -38.222142      1009541.3     -367808.32      18191.644     -349616.67     -350179.42    
    464000      364000   184.27594      0.9724579      37.796638      1008284.2     -367857.18      17998.637     -349858.54     -349302.75    
    465000      365000   185.56666      0.97256938     33.803889      1008168.6     -367854.04      18124.704     -349729.34     -349232.32    
    466000      366000   186.7625       0.97144256    -118.25214      1009338.1     -367729.35      18241.505     -349487.85     -351228.54    
    467000      367000   185.63228      0.97146181    -56.957371      1009318.1     -367652.2       18131.113     -349521.09     -350359.49    
    468000      368000   186.18496      0.9729805      58.330949      1007742.7     -367810.9       18185.095     -349625.8      -348768.52    
    469000      369000   186.62204      0.97240906    -1.7508365      1008334.9     -367765.72      18227.786     -349537.93     -349563.68    
    470000      370000   186.73211      0.97220383    -36.252523      1008547.7     -367731.96      18238.537     -349493.43     -350026.65    
    471000      371000   185.69241      0.97215463    -41.325555      1008598.8     -367643.55      18136.986     -349506.56     -350114.44    
    472000      372000   188.15325      0.97216876    -14.734135      1008584.1     -367604.42      18377.343     -349227.08     -349443.8     
    473000      373000   188.03347      0.97192885    -61.396065      1008833.1     -367626.36      18365.643     -349260.72     -350164.02    
    474000      374000   187.88854      0.97200441    -7.8830596      1008754.6     -367636.71      18351.487     -349285.23     -349401.2     
    475000      375000   187.93097      0.97285941     52.96891       1007868.1     -367631.45      18355.631     -349275.82     -348497.24    
    476000      376000   187.41407      0.97184998    -60.292502      1008914.9     -367775.31      18305.145     -349470.16     -350357.3     
    477000      377000   188.79517      0.97255347    -30.225504      1008185.1     -367716.05      18440.04      -349276.01     -349720.42    
    478000      378000   188.75577      0.97267451    -7.3872809      1008059.7     -367577.65      18436.192     -349141.46     -349250.06    
    479000      379000   188.62613      0.97147211    -48.417657      1009307.4     -367693.88      18423.53      -349270.35     -349983.05    
    480000      380000   187.26315      0.97207545    -38.192026      1008680.9     -367681.25      18290.405     -349390.84     -349952.67    
    481000      381000   188.49858      0.97197671    -50.106942      1008783.4     -367667.88      18411.072     -349256.81     -349993.99    
    482000      382000   188.22106      0.97162735    -35.41376       1009146.1     -367624.15      18383.965     -349240.19     -349761.38    
    483000      383000   189.17002      0.97243467     30.530704      1008308.3     -367749.4       18476.653     -349272.75     -348823.79    
    484000      384000   187.59569      0.97268312     7.4351107      1008050.8     -367851.75      18322.884     -349528.87     -349419.56    
    485000      385000   188.64601      0.97272024     59.390911      1008012.3     -367675.6       18425.472     -349250.13     -348377.03    
    486000      386000   187.28446      0.97175348    -38.229049      1009015.1     -367510.29      18292.486     -349217.8      -349780.36    
    487000      387000   189.40433      0.97381435     153.33537      1006879.8     -367568.41      18499.538     -349068.87     -346817.25    
    488000      388000   188.9149       0.97346659     117.70742      1007239.5     -367509.98      18451.734     -349058.24     -347329.17    
    489000      389000   189.33157      0.97281378    -8.5030996      1007915.4     -367436.47      18492.432     -348944.04     -349069.03    
    490000      390000   187.35688      0.97208544    -12.52195       1008670.6     -367801.96      18299.559     -349502.4      -349686.61    
    491000      391000   187.9458       0.9720661      17.029423      1008690.6     -367455.48      18357.08      -349098.4      -348847.89    
    492000      392000   189.49646      0.97165413    -54.80645       1009118.3     -367555.86      18508.537     -349047.32     -349853.9     
    493000      393000   189.79066      0.97237773    -13.020785      1008367.4     -367699.49      18537.272     -349162.22     -349353.7     
    494000      394000   189.01491      0.97245078    -59.836944      1008291.6     -367377.4       18461.502     -348915.9      -349795.8     
    495000      395000   188.70556      0.97246951     20.20418       1008272.2     -367689.44      18431.288     -349258.15     -348961.06    
    496000      396000   189.99711      0.97217899     13.158431      1008573.5     -367564.67      18557.437     -349007.24     -348813.69    
    497000      397000   189.96498      0.97220479    -25.270977      1008546.7     -367678.6       18554.298     -349124.31     -349496.01    
    498000      398000   189.13647      0.9734679      64.447266      1007238.1     -367731.79      18473.375     -349258.41     -348311.71    
    499000      399000   188.55452      0.97281396     63.5653        1007915.2     -367599.72      18416.536     -349183.19     -348248.82    
    500000      400000   189.96399      0.97265531     8.1232438      1008079.6     -367451.77      18554.201     -348897.56     -348778.14    
    501000      401000   189.43056      0.97165666    -38.817087      1009115.7     -367659         18502.1       -349156.9      -349728.17    
    502000      402000   190.35875      0.9716995     -61.796115      1009071.2     -367401.49      18592.759     -348808.74     -349718.14    
    503000      403000   191.45271      0.97181809     6.0384913      1008948       -367455.19      18699.608     -348755.59     -348666.73    
    504000      404000   189.49285      0.97221598     26.503863      1008535.1     -367453.58      18508.184     -348945.4      -348555.56    
    505000      405000   189.83         0.97194285    -25.514077      1008818.5     -367496.38      18541.115     -348955.26     -349330.64    
    506000      406000   189.95588      0.97262892     80.284747      1008106.9     -367421.94      18553.409     -348868.54     -347688.17    
    507000      407000   190.19876      0.97237489     22.898953      1008370.3     -367458.38      18577.132     -348881.25     -348544.49    
    508000      408000   190.96465      0.97223612    -2.2281302      1008514.2     -367395.05      18651.939     -348743.11     -348775.88    
    509000      409000   191.53297      0.97207353    -68.652412      1008682.9     -367337.57      18707.447     -348630.12     -349640.04    
    510000      410000   189.21474      0.97254733     3.2915746      1008191.5     -367363.09      18481.02      -348882.07     -348833.67    
    511000      411000   192.20563      0.97305606     46.701253      1007664.4     -367330.22      18773.148     -348557.08     -347870.77    
    512000      412000   191.66599      0.97226512    -39.209173      1008484.2     -367456.35      18720.439     -348735.91     -349312.59    
    513000      413000   191.57351      0.97416771     88.573349      1006514.5     -367258.87      18711.406     -348547.46     -347247.3     
    514000      414000   191.45252      0.97186226    -15.078558      1008902.2     -367335.19      18699.589     -348635.6      -348857.46    
    515000      415000   192.50432      0.97243794     30.96544       1008304.9     -367311.59      18802.321     -348509.27     -348053.92    
    516000      416000   190.20435      0.97160787    -93.691897      1009166.3     -367488.69      18577.677     -348911.01     -350289.94    
    517000      417000   191.40335      0.9730137      59.251624      1007708.3     -367327.16      18694.787     -348632.38     -347761.59    
    518000      418000   192.33706      0.97204761     2.686725       1008709.8     -367336.38      18785.984     -348550.4      -348510.88    
    519000      419000   194.04782      0.97095516    -67.696732      1009844.7     -367402.15      18953.078     -348449.07     -349446.08    
[...]
   2931000      371000   149.50426      0.96977083     16.419134      1011078       -371300.75      14602.41      -356698.34     -356456.23    
   2932000      372000   150.47023      0.96963037     34.398841      1011224.5     -371315.94      14696.758     -356619.18     -356111.88    
   2933000      373000   148.98868      0.97002565     32.602394      1010812.4     -371370.73      14552.053     -356818.67     -356338.06    
   2934000      374000   149.13788      0.96938286    -18.358909      1011482.7     -371324.9       14566.625     -356758.28     -357029.1     
   2935000      375000   149.7477       0.9697906      12.723495      1011057.4     -371220.13      14626.188     -356593.94     -356406.33    
   2936000      376000   149.20157      0.96953727     1.4240284      1011321.6     -371296.23      14572.846     -356723.38     -356702.38    
   2937000      377000   149.97001      0.96920157    -42.83141       1011671.9     -371180.64      14647.901     -356532.74     -357164.68    
   2938000      378000   150.01886      0.9696246      7.7641033      1011230.5     -371258.59      14652.673     -356605.92     -356491.41    
   2939000      379000   149.87655      0.96959962    -10.614049      1011256.5     -371215.11      14638.773     -356576.34     -356732.88    
   2940000      380000   149.5001       0.97042631     60.415355      1010395.1     -371335.85      14602.004     -356733.84     -355843.59    
   2941000      381000   150.14426      0.96921551    -17.466764      1011657.3     -371150.42      14664.921     -356485.5      -356743.2     
   2942000      382000   149.21752      0.9700578      11.466179      1010778.9     -371309.71      14574.404     -356735.3      -356566.28    
   2943000      383000   149.54172      0.9691127     -25.684541      1011764.6     -371287.95      14606.069     -356681.88     -357060.87    
   2944000      384000   149.21418      0.9693484     -19.816199      1011518.6     -371162.02      14574.078     -356587.94     -356880.27    
   2945000      385000   150.26595      0.96995835     28.85836       1010882.5     -371407.23      14676.806     -356730.42     -356304.97    
   2946000      386000   150.79276      0.96931987     3.7514469      1011548.4     -371245.11      14728.261     -356516.85     -356461.51    
   2947000      387000   150.42934      0.96955669     33.525999      1011301.3     -371202.37      14692.765     -356509.61     -356015.14    
   2948000      388000   149.1078       0.96939025     18.154639      1011475       -371229.34      14563.687     -356665.65     -356397.85    
   2949000      389000   149.34438      0.97019604     34.772225      1010634.9     -371377.72      14586.794     -356790.93     -356278.42    
   2950000      390000   149.3667       0.96986212     27.198683      1010982.8     -371291.36      14588.975     -356702.38     -356301.36    
   2951000      391000   150.20512      0.96933854    -19.698202      1011528.9     -371350.33      14670.865     -356679.47     -356970.06    
   2952000      392000   150.24859      0.96928538    -0.79065076     1011584.4     -371272         14675.111     -356596.89     -356608.55    
   2953000      393000   149.24678      0.96912539    -2.6170002      1011751.4     -371217.26      14577.261     -356640        -356678.61    
   2954000      394000   149.70778      0.97039012     33.353816      1010432.7     -371288.83      14622.288     -356666.54     -356175.03    
   2955000      395000   149.56647      0.96943719     16.610833      1011426       -371154.8       14608.487     -356546.31     -356301.29    
   2956000      396000   148.92058      0.96918159    -80.771944      1011692.7     -371276.62      14545.401     -356731.22     -357922.97    
   2957000      397000   150.20054      0.96829749    -67.34675       1012616.4     -371417.04      14670.417     -356746.63     -357741.2     
   2958000      398000   149.83266      0.96947402    -16.504624      1011387.6     -371222.87      14634.486     -356588.38     -356831.83    
   2959000      399000   149.42921      0.96891756    -19.175029      1011968.4     -371296.8       14595.08      -356701.72     -356984.71    
   2960000      400000   150.90073      0.96953389    -13.148612      1011325.1     -371288.99      14738.806     -356550.18     -356744.11    
   2961000      401000   150.83769      0.96970626     8.5471747      1011145.3     -371270.09      14732.649     -356537.44     -356411.4     
   2962000      402000   150.8113       0.96926126    -9.3957514      1011609.6     -371258.56      14730.072     -356528.49     -356667.11    
   2963000      403000   150.09579      0.96898446    -15.874398      1011898.5     -371292.9       14660.186     -356632.71     -356866.98    
   2964000      404000   149.69652      0.96981128     28.998155      1011035.8     -371274.49      14621.189     -356653.3      -356225.73    
   2965000      405000   150.817        0.96960036     11.0461        1011255.8     -371303.43      14730.628     -356572.8      -356409.89    
   2966000      406000   150.65573      0.97051726     80.698636      1010300.4     -371275.02      14714.877     -356560.14     -355371.12    
   2967000      407000   149.52795      0.96935568     17.90363       1011511       -371241.53      14604.724     -356636.81     -356372.7     
   2968000      408000   150.09514      0.97017234     92.704673      1010659.6     -371374.48      14660.123     -356714.36     -355347.95    
   2969000      409000   149.63829      0.96839964    -63.822567      1012509.6     -371137.36      14615.502     -356521.86     -357464.29    
   2970000      410000   150.29416      0.96910624    -0.93456326     1011771.4     -371285.88      14679.562     -356606.32     -356620.11    
   2971000      411000   151.19036      0.96991612     54.525113      1010926.6     -371278.99      14767.096     -356511.89     -355708.01    
   2972000      412000   149.32644      0.96975718     64.815188      1011092.2     -371371.21      14585.042     -356786.17     -355830.42    
   2973000      413000   150.84872      0.96845774    -113.01485      1012448.9     -371300.69      14733.727     -356566.96     -358235.69    
   2974000      414000   150.01581      0.96968266     7.5750072      1011169.9     -371415.85      14652.375     -356763.48     -356651.77    
   2975000      415000   150.61158      0.96838053    -74.332371      1012529.6     -371183         14710.565     -356472.43     -357570.08    
   2976000      416000   150.39109      0.96978844     50.971525      1011059.6     -371400.5       14689.029     -356711.47     -355959.88    
   2977000      417000   149.59654      0.96934424    -4.6124106      1011523       -371422.61      14611.424     -356811.19     -356879.23    
   2978000      418000   149.37691      0.96964269     25.653766      1011211.6     -371294.26      14589.972     -356704.29     -356325.96    
   2979000      419000   149.47491      0.96871797    -59.299736      1012176.9     -371238.75      14599.544     -356639.21     -357514.57    
   2980000      420000   149.85069      0.96857326    -53.279674      1012328.1     -371357.48      14636.247     -356721.24     -357507.85    
   2981000      421000   150.84173      0.96935576    -18.537579      1011510.9     -371297.7       14733.044     -356564.66     -356838.12    
   2982000      422000   148.68453      0.96956719    -1.4628319      1011290.4     -371209.6       14522.345     -356687.25     -356708.83    
   2983000      423000   149.25581      0.96900495    -27.216317      1011877.1     -371270.12      14578.144     -356691.97     -357093.61    
   2984000      424000   150.33752      0.96934731    -2.98462        1011519.8     -371329.73      14683.797     -356645.94     -356689.96    
   2985000      425000   148.67951      0.96939768     20.15665       1011467.2     -371344.2       14521.855     -356822.35     -356525.01    
   2986000      426000   151.10598      0.96889976    -12.744418      1011987       -371330.1       14758.854     -356571.24     -356759.33    
   2987000      427000   150.25771      0.96898351    -52.691124      1011899.5     -371282.16      14676.001     -356606.16     -357383.75    
   2988000      428000   149.63437      0.96994414     29.029893      1010897.3     -371417.7       14615.119     -356802.58     -356374.6     
   2989000      429000   149.84565      0.96907085    -15.240129      1011808.3     -371197.17      14635.754     -356561.41     -356786.3     
   2990000      430000   150.01212      0.96901467    -34.54824       1011867       -371204.49      14652.014     -356552.47     -357062.3     
   2991000      431000   149.9456       0.96964412     41.168364      1011210.1     -371292.85      14645.517     -356647.34     -356040.21    
   2992000      432000   149.67041      0.96981954     56.493069      1011027.2     -371353.38      14618.639     -356734.75     -355901.77    
   2993000      433000   150.17704      0.96834365    -57.076667      1012568.2     -371266.19      14668.123     -356598.07     -357440.94    
   2994000      434000   148.57735      0.96922129     60.361252      1011651.3     -371303.21      14511.877     -356791.34     -355900.77    
   2995000      435000   150.25236      0.96853954    -43.400613      1012363.4     -371259.22      14675.479     -356583.75     -357224.52    
   2996000      436000   149.5348       0.96911266     1.4731851      1011764.7     -371206.62      14605.394     -356601.23     -356579.49    
   2997000      437000   151.01246      0.96860861    -19.211698      1012291.2     -371351.22      14749.72      -356601.5      -356885.13    
   2998000      438000   150.42976      0.96987188     84.426393      1010972.7     -371337.39      14692.806     -356644.58     -355399.8     
   2999000      439000   149.75023      0.96897203    -4.1420725      1011911.5     -371361.17      14626.435     -356734.73     -356795.86    
   3000000      440000   150.31303      0.96935701     23.090006      1011509.6     -371302.87      14681.405     -356621.46     -356280.84    
   3001000      441000   149.80293      0.96931581     18.809523      1011552.6     -371380.76      14631.582     -356749.18     -356471.69    
   3002000      442000   149.90053      0.96894376    -2.8489384      1011941       -371310.39      14641.115     -356669.27     -356711.32    
   3003000      443000   150.43286      0.96841834    -78.335881      1012490.1     -371411.89      14693.109     -356718.78     -357875.5     
   3004000      444000   149.65935      0.96951037     24.752455      1011349.6     -371340.3       14617.558     -356722.75     -356357.66    
   3005000      445000   150.0601       0.96902973     33.554183      1011851.3     -371309.44      14656.7       -356652.74     -356157.59    
   3006000      446000   148.82556      0.96971763     38.275935      1011133.5     -371278.76      14536.12      -356742.64     -356178.21    
   3007000      447000   148.71023      0.96892495    -24.408828      1011960.7     -371372.13      14524.856     -356847.27     -357207.51    
   3008000      448000   150.80904      0.96949716    -7.4548302      1011363.4     -371361.76      14729.851     -356631.91     -356741.86    
   3009000      449000   149.33356      0.96964665     40.370971      1011207.5     -371553.48      14585.738     -356967.75     -356372.38    
   3010000      450000   150.62141      0.96877596    -61.055691      1012116.3     -371368.91      14711.525     -356657.39     -357558.61    
   3011000      451000   148.96659      0.96988714     19.842362      1010956.8     -371294.4       14549.895     -356744.5      -356451.95    
   3012000      452000   150.03293      0.96943387    -4.8219749      1011429.4     -371296.41      14654.047     -356642.36     -356713.49    
   3013000      453000   149.48887      0.9705074      117.07496      1010310.6     -371279.43      14600.907     -356678.53     -354953.5     
   3014000      454000   149.66192      0.96926612    -15.064369      1011604.5     -371367.65      14617.809     -356749.84     -356972.09    
   3015000      455000   149.48352      0.96893777    -26.915695      1011947.3     -371358.27      14600.385     -356757.89     -357155.12    
   3016000      456000   150.02182      0.96876978    -22.789312      1012122.8     -371237.58      14652.962     -356584.61     -356921       
   3017000      457000   150.12284      0.96936272     22.127642      1011503.7     -371342.26      14662.828     -356679.43     -356353.01    
   3018000      458000   149.02481      0.9694275      26.42135       1011436.1     -371403.26      14555.582     -356847.67     -356457.94    
   3019000      459000   150.59611      0.96841068    -76.633674      1012498.1     -371417.34      14709.054     -356708.28     -357839.87    
   3020000      460000   150.13143      0.96908737    -14.293992      1011791.1     -371238.93      14663.668     -356575.26     -356786.18    
   3021000      461000   149.07256      0.9688518     -14.005596      1012037.1     -371483.23      14560.245     -356922.98     -357129.7     
   3022000      462000   150.34846      0.96987728     61.38362       1010967       -371246.11      14684.866     -356561.24     -355656.21    
   3023000      463000   150.95494      0.96843319    -51.540574      1012474.5     -371299.44      14744.102     -356555.34     -357316.38    
   3024000      464000   149.83992      0.96962093    -10.922821      1011234.3     -371279.98      14635.195     -356644.79     -356805.87    
   3025000      465000   150.36275      0.96982691     65.962677      1011019.5     -371269.68      14686.261     -356583.42     -355610.82    
   3026000      466000   148.22543      0.96978906     20.995231      1011059       -371340.85      14477.504     -356863.34     -356553.76    
   3027000      467000   149.05658      0.96946292     14.488447      1011399.1     -371373.86      14558.684     -356815.18     -356601.47    
   3028000      468000   149.28988      0.96955023    -1.4429522      1011308.1     -371343.35      14581.472     -356761.88     -356783.16    
   3029000      469000   150.31566      0.9695186     -17.519064      1011341.1     -371383.9       14681.661     -356702.24     -356960.63    
   3030000      470000   148.68362      0.96964579     30.840257      1011208.4     -371297.36      14522.257     -356775.1      -356320.29    
   3031000      471000   148.78243      0.97025404     76.048214      1010574.5     -371255.13      14531.908     -356723.23     -355602.41    
   3032000      472000   149.30903      0.96976093     62.440516      1011088.3     -371346.16      14583.341     -356762.82     -355842.09    
   3033000      473000   150.30382      0.9699092      76.056448      1010933.8     -371324.4       14680.505     -356643.89     -355522.56    
   3034000      474000   149.7722       0.96984604     40.371388      1010999.6     -371283.67      14628.581     -356655.09     -356059.84    
   3035000      475000   151.08976      0.96955841    -1.3040557      1011299.5     -371348.98      14757.269     -356591.71     -356610.95    
   3036000      476000   151.53274      0.96909946    -49.619439      1011778.5     -371206.6       14800.537     -356406.07     -357138.24    
   3037000      477000   150.42585      0.96972953     28.956671      1011121.1     -371355.22      14692.424     -356662.79     -356235.79    
   3038000      478000   149.21552      0.96994043     33.950344      1010901.2     -371426.69      14574.209     -356852.49     -356351.96    
   3039000      479000   149.66873      0.96939886    -2.0490678      1011466       -371321.05      14618.475     -356702.57     -356732.8     
   3040000      480000   149.34031      0.96992692     33.570213      1010915.3     -371287.06      14586.397     -356700.66     -356205.73    
   3041000      481000   149.38112      0.96939684     25.494316      1011468.1     -371342.61      14590.383     -356752.23     -356376.16    
   3042000      482000   149.08         0.96931712     5.6805668      1011551.3     -371316.93      14560.972     -356755.96     -356672.16    
   3043000      483000   151.32506      0.97056387     116.56312      1010251.9     -371253.2       14780.252     -356472.95     -354755.57    
   3044000      484000   149.83063      0.96930931     34.752845      1011559.4     -371360.55      14634.288     -356726.26     -356213.57    
   3045000      485000   150.48405      0.96938583    -12.897419      1011479.6     -371327.17      14698.109     -356629.06     -356819.31    
   3046000      486000   149.77059      0.9689        -14.947247      1011986.7     -371174.21      14628.424     -356545.78     -356766.39    
   3047000      487000   149.47019      0.96909795     12.347218      1011780       -371341.04      14599.082     -356741.96     -356559.77    
   3048000      488000   151.1975       0.9686674     -23.223041      1012229.7     -371269.96      14767.793     -356502.16     -356844.99    
   3049000      489000   149.19761      0.96852865    -79.225783      1012374.8     -371270.57      14572.459     -356698.11     -357867.83    
   3050000      490000   150.02144      0.96868752    -35.717993      1012208.7     -371389.39      14652.925     -356736.47     -357263.74    
   3051000      491000   150.11001      0.96981051     52.646117      1011036.6     -371414.31      14661.575     -356752.74     -355976.48    
   3052000      492000   150.39295      0.96946593    -0.076559548    1011396       -371454.7       14689.211     -356765.49     -356766.62    
   3053000      493000   150.7739       0.96951224     41.082517      1011347.7     -371367.35      14726.419     -356640.93     -356034.98    
   3054000      494000   150.02367      0.96961219     14.167235      1011243.4     -371361.28      14653.143     -356708.14     -356499.2     
   3055000      495000   148.9237       0.96851997    -60.648988      1012383.8     -371382.06      14545.706     -356836.36     -357731.81    
   3056000      496000   151.30433      0.96910527    -13.577971      1011772.4     -371370.86      14778.227     -356592.63     -356792.99    
   3057000      497000   150.1116       0.96908422    -13.634937      1011794.4     -371296.38      14661.731     -356634.65     -356835.85    
   3058000      498000   150.36145      0.96926132    -16.460688      1011609.5     -371359.04      14686.134     -356672.91     -356915.76    
   3059000      499000   149.2823       0.96925883    -37.415233      1011612.1     -371353.65      14580.731     -356772.92     -357324.92    
   3060000      500000   149.91403      0.96945854    -6.2753271      1011403.7     -371250.87      14642.433     -356608.44     -356701       
Loop time of 1864.64 on 32 procs for 500000 steps with 32768 atoms

Performance: 231.680 ns/day, 0.104 hours/ns, 268.148 timesteps/s, 8.787 Matom-step/s
100.0% CPU use with 32 MPI tasks x no OpenMP threads

MPI task timing breakdown:
Section |  min time  |  avg time  |  max time  |%varavg| %total
---------------------------------------------------------------
Pair    | 1597.1     | 1630.4     | 1669.4     |  43.3 | 87.44
Neigh   | 20.347     | 20.667     | 21.397     |   4.3 |  1.11
Comm    | 141.08     | 177.53     | 209.83     | 126.9 |  9.52
Output  | 0.13384    | 0.17881    | 0.22152    |   6.1 |  0.01
Modify  | 27.978     | 30.957     | 34.366     |  35.8 |  1.66
Other   |            | 4.947      |            |       |  0.27

Nlocal:           1024 ave        1043 max        1006 min
Histogram: 1 5 4 2 3 6 3 6 0 2
Nghost:        2977.59 ave        3002 max        2941 min
Histogram: 1 1 2 0 5 5 5 5 6 2
Neighs:              0 ave           0 max           0 min
Histogram: 32 0 0 0 0 0 0 0 0 0
FullNghs:      95219.4 ave       97267 max       93073 min
Histogram: 1 3 4 5 0 7 5 2 3 2

Total # of neighbors = 3047020
Ave neighs/atom = 92.987671
Neighbor list builds = 6923
Dangerous builds = 0
System init for write_data ...
Total wall time: 3:30:13
